
atom_style atomic
units metal
boundary p p p
#atom_modify sort 0 0.0
newton on

read_data data.lammps
Reading data file ...
  triclinic box = (0 0 0) to (4.3790145 4.3790145 4.3790145) with tilt (-0 0 0)
  1 by 1 by 1 MPI processor grid
  reading atoms ...
  8 atoms
  read_data CPU = 0.001 seconds
replicate 10 10 20
Replicating atoms ...
  triclinic box = (0 0 0) to (43.790145 43.790145 87.58029) with tilt (-0 0 0)
  1 by 1 by 1 MPI processor grid
  16000 atoms
  replicate CPU = 0.016 seconds

### interactions

pair_style flare
pair_coeff * * lmp.flare
Reading potential file lmp.flare with DATE: Thu

# compute unc all flare/std/atom L_inv_lmp.flare sparse_desc_lmp.flare
# compute MaxUnc all reduce max c_unc

mass 1 12.011000
mass 2 28.085000

thermo_style custom step temp press cpu pxx pyy pzz pxy pxz pyz ke pe etotal vol lx ly lz atoms    #c_MaxUnc
thermo 1000
timestep 0.0005
restart 100000 restart_*.dat

#################### Equilibrate at P and T_es ##############################
velocity all create $T 41928459 rot yes dist gaussian
velocity all create 3600 41928459 rot yes dist gaussian
fix mom all momentum 1000 linear 1 1 1 angular

fix 1 all npt temp $T $T $(100.0*dt) iso $P $P $(1000.0*dt)
fix 1 all npt temp 3600 $T $(100.0*dt) iso $P $P $(1000.0*dt)
fix 1 all npt temp 3600 3600 $(100.0*dt) iso $P $P $(1000.0*dt)
fix 1 all npt temp 3600 3600 0.050000000000000002776 iso $P $P $(1000.0*dt)
fix 1 all npt temp 3600 3600 0.050000000000000002776 iso 600000 $P $(1000.0*dt)
fix 1 all npt temp 3600 3600 0.050000000000000002776 iso 600000 600000 $(1000.0*dt)
fix 1 all npt temp 3600 3600 0.050000000000000002776 iso 600000 600000 0.5
dump 1 all custom 1000 1equil.bin id type x y z vx vy vz
run   10000 # report performance
Neighbor list info ...
  update every 1 steps, delay 10 steps, check yes
  max neighbors/atom: 2000, page size: 100000
  master list distance cutoff = 6
  ghost atom cutoff = 6
  binsize = 6, bins = 8 8 15
  1 neighbor lists, perpetual/occasional/extra = 1 0 0
  (1) pair flare/kk, perpetual
      attributes: full, newton on, kokkos_device
      pair build: full/bin/kk/device
      stencil: full/bin/3d
      bin: kk/device
Per MPI rank memory allocation (min/avg/max) = 15.9 | 15.9 | 15.9 Mbytes
   Step          Temp          Press           CPU            Pxx            Pyy            Pzz            Pxy            Pxz            Pyz           KinEng         PotEng         TotEng         Volume           Lx             Ly             Lz          Atoms   
         0   3600           66059.554      0              65701.03       66222.995      66254.636     -499.5503       224.99675     -564.80851      7444.919      -4109.4047      3335.5143      167941.93      43.790145      43.790145      87.58029           16000 
      1000   3650.789       600577.23      6.5319551      601896.88      599697.24      600137.56     -1135.4354      1767.4095     -60.61618       7549.9522      7740.3237      15290.276      142575.52      41.464044      41.464044      82.928088          16000 
      2000   3629.8377      601287.83      13.038511      601231.12      601019.19      601613.17      2784.6578     -1606.882       1638.4112      7506.6243      7391.752       14898.376      142387.94      41.445852      41.445852      82.891703          16000 
      3000   3607.7731      600143.03      19.545059      601766.44      598345.88      600316.76     -215.75605     -992.30706     -2336.514       7460.9941      7602.8303      15063.824      142366.26      41.443748      41.443748      82.887497          16000 
      4000   3611.0414      600103.15      26.0538        598712.12      600881.59      600715.73     -1597.2734      1686.1859     -2859.401       7467.7531      7550.3645      15018.118      142334.08      41.440625      41.440625      82.88125           16000 
      5000   3586.5364      599657.75      32.558966      597490.66      600643.59      600838.99      3449.7252      2776.1229      3865.4698      7417.0758      7606.8376      15023.913      142360.41      41.443181      41.443181      82.886362          16000 
      6000   3615.6248      599417.48      39.065565      598659.01      600861.92      598731.5       4700.4033      2056.5601      2800.3404      7477.2317      7590.6124      15067.844      142368.63      41.443978      41.443978      82.887957          16000 
      7000   3591.0851      599844.36      45.570082      600055.16      600184.92      599293        -91.124876      1231.5874      485.69448      7426.4828      7572.0635      14998.546      142309.32      41.438223      41.438223      82.876445          16000 
      8000   3631.1942      600268.68      52.072471      599562.55      599020.89      602222.6      -624.98266     -1096.2658      3786.9422      7509.4296      7578.15        15087.58       142325.67      41.439809      41.439809      82.879619          16000 
      9000   3603.7862      598883.31      58.579321      601986.85      597061.82      597601.26      2245.5234     -978.40855      1204.4141      7452.749       7533.5158      14986.265      142341.55      41.44135       41.44135       82.882701          16000 
     10000   3639.3107      605044.96      65.088756      605238.72      604401.01      605495.16      7109.0605     -1654.6821     -2751.807       7526.2148      7678.2463      15204.461      142138.51      41.421637      41.421637      82.843274          16000 
Loop time of 65.0888 on 8 procs for 10000 steps with 16000 atoms

Performance: 6.637 ns/day, 3.616 hours/ns, 153.636 timesteps/s
61.1% CPU use with 1 MPI tasks x 8 OpenMP threads

MPI task timing breakdown:
Section |  min time  |  avg time  |  max time  |%varavg| %total
---------------------------------------------------------------
Pair    | 62.024     | 62.024     | 62.024     |   0.0 | 95.29
Neigh   | 0.10867    | 0.10867    | 0.10867    |   0.0 |  0.17
Comm    | 0.36703    | 0.36703    | 0.36703    |   0.0 |  0.56
Output  | 0.01154    | 0.01154    | 0.01154    |   0.0 |  0.02
Modify  | 2.3164     | 2.3164     | 2.3164     |   0.0 |  3.56
Other   |            | 0.2608     |            |       |  0.40

Nlocal:          16000 ave       16000 max       16000 min
Histogram: 1 0 0 0 0 0 0 0 0 0
Nghost:          13927 ave       13927 max       13927 min
Histogram: 1 0 0 0 0 0 0 0 0 0
Neighs:              0 ave           0 max           0 min
Histogram: 1 0 0 0 0 0 0 0 0 0
FullNghs:  1.62254e+06 ave 1.62254e+06 max 1.62254e+06 min
Histogram: 1 0 0 0 0 0 0 0 0 0

Total # of neighbors = 1622538
Ave neighs/atom = 101.40863
Neighbor list builds = 268
Dangerous builds = 0
run  990000
Per MPI rank memory allocation (min/avg/max) = 16.2 | 16.2 | 16.2 Mbytes
   Step          Temp          Press           CPU            Pxx            Pyy            Pzz            Pxy            Pxz            Pyz           KinEng         PotEng         TotEng         Volume           Lx             Ly             Lz          Atoms   
     10000   3639.3107      605044.96      0              605238.72      604401.01      605495.16      7109.0605     -1654.6821     -2751.807       7526.2148      7678.2463      15204.461      142138.51      41.421637      41.421637      82.843274          16000 
     11000   3573.3471      598159.49      6.5066008      599063.16      598925.37      596489.95     -3048.6045      3489.9362      347.74937      7389.8         7592.4479      14982.248      142317.81      41.439046      41.439046      82.878093          16000 
     12000   3595.7224      595386.8       13.012889      597148.6       593259.53      595752.29     -1114.9869     -1887.277       259.42935      7436.0729      7577.9365      15014.009      142540.31      41.46063       41.46063       82.92126           16000 
     13000   3578.1099      603000.07      19.521965      605290.29      602406.49      601303.44      26.454298     -673.17508      2434.3426      7399.6497      7633.7517      15033.401      142205.39      41.428132      41.428132      82.856265          16000 
     14000   3619.3344      602788.05      26.027967      604477.95      602562.82      601323.39      1000.1249     -1541.2986      1566.9852      7484.9032      7701.6237      15186.527      142242.59      41.431744      41.431744      82.863488          16000 
     15000   3559.5506      595107.19      32.533327      593608.32      596306.75      595406.51      786.22557     -3269.0921     -203.9083       7361.2683      7624.0378      14985.306      142435.04      41.450421      41.450421      82.900842          16000 
     16000   3611.2392      598943.39      39.040054      598261.3       598695.95      599872.93     -899.81352      2870.7111     -2647.6404      7468.162       7671.4415      15139.603      142410.83      41.448073      41.448073      82.896146          16000 
     17000   3587.6588      606577.94      45.545092      606470.24      606373.02      606890.56     -1616.0669      2186.5227      1142.4553      7419.3969      7633.3109      15052.708      142142.97      41.42207       41.42207       82.84414           16000 
     18000   3613.4608      595660.13      52.044562      596170.61      596602.64      594207.14      241.5096       671.21391     -3323.1591      7472.7563      7480.017       14952.773      142445.07      41.451394      41.451394      82.902788          16000 
     19000   3635.3121      600931.94      58.548833      601144.33      599043.31      602608.19     -5389.729       2395.6376      3115.6422      7517.9456      7650.2205      15168.166      142350.81      41.442249      41.442249      82.884498          16000 
     20000   3586.8347      605693.92      65.05497       604329.36      605064.86      607687.53      1906.1062      2088.379      -171.57202      7417.6927      7692.4001      15110.093      142132.47      41.42105       41.42105       82.8421            16000 
     21000   3597.1221      594975.24      71.559377      593878.34      595498.38      595548.99     -1846.0508     -509.50529     -386.91736      7438.9675      7594.4792      15033.447      142523.98      41.459047      41.459047      82.918094          16000 
     22000   3568.153       598867.08      78.066946      598521.66      599131.72      598947.84      1862.1055      1385.9247     -298.59017      7379.0584      7622.4605      15001.519      142365.02      41.443628      41.443628      82.887256          16000 
     23000   3607.0503      603825.89      84.571719      604659.97      604272.99      602544.72     -2582.7281      407.48674     -1860.0112      7459.4992      7614.5156      15074.015      142194.17      41.427043      41.427043      82.854085          16000 
     24000   3587.9633      600187.85      91.076719      599427.07      602102.88      599033.59      1437.4689     -1479.5004     -2604.2893      7420.0268      7524.5888      14944.616      142328.97      41.440129      41.440129      82.880258          16000 
     25000   3595.9465      595924.19      97.582797      596273.1       594885.67      596613.81     -2523.2857      1187.5917      16.662685      7436.5362      7600.0694      15036.606      142437.54      41.450664      41.450664      82.901328          16000 
     26000   3569.4663      606872.85      104.0886       607296.81      607691.79      605629.95     -207.58322     -1789.1481      3400.3579      7381.7743      7614.8477      14996.622      142028.77      41.410974      41.410974      82.821949          16000 
     27000   3594.949       599732.34      110.59817      600827.99      598732.18      599636.85     -359.7557      -3582.8387      1722.5189      7434.4733      7643.0732      15077.547      142344.99      41.441684      41.441684      82.883368          16000 
     28000   3545.5536      596017.66      117.10936      597599.36      594547.05      595906.56     -2352.4659     -2911.8097      2280.0341      7332.3221      7589.2016      14921.524      142471.47      41.453955      41.453955      82.90791           16000 
     29000   3597.2748      604700.6       123.61944      604618.86      604768.19      604714.75     -2268.9368      2837.4415      115.40577      7439.2833      7650.4506      15089.734      142131.72      41.420977      41.420977      82.841953          16000 
     30000   3608.6486      601753.12      130.13064      603306.75      601209.9       600742.72      1037.7412     -815.62357     -3377.8032      7462.8046      7749.7891      15212.594      142275.23      41.434914      41.434914      82.869827          16000 
     31000   3589.6004      593203.57      136.63956      594140.65      591103.33      594366.73      49.269899      2880.3327      4244.3714      7423.4124      7615.775       15039.187      142527.06      41.459345      41.459345      82.918691          16000 
     32000   3561.9044      603066.46      143.14815      604525.64      603212.22      601461.52     -5268.6567      1621.9274     -6320.1728      7366.136       7540.0527      14906.189      142152.3       41.422976      41.422976      82.845952          16000 
     33000   3586.5688      601855.61      149.65789      603852.07      601142.38      600572.39      2552.6297     -2084.1101      513.51051      7417.1428      7709.9603      15127.103      142255.92      41.433038      41.433038      82.866076          16000 
     34000   3524.356       595023.46      156.1601       593887         594621.82      596561.57      1585.1906      773.8854       760.12409      7288.4848      7596.9393      14885.424      142473.82      41.454183      41.454183      82.908366          16000 
     35000   3588.832       599980.07      162.66587      600595.41      596710.08      602634.71      178.11773      1491.7514      506.93         7421.8232      7690.7316      15112.555      142339.15      41.441118      41.441118      82.882235          16000 
     36000   3580.0798      601296.79      169.17733      598988.47      602139.68      602762.23      779.41057      786.85623     -4088.7872      7403.7235      7647.8391      15051.563      142229.41      41.430465      41.430465      82.86093           16000 
     37000   3580.5963      596809.94      175.6903       597066.41      596454.14      596909.26     -306.22755      1933.6159     -829.77602      7404.7915      7639.7849      15044.576      142409.57      41.44795       41.44795       82.8959            16000 
     38000   3579.1242      596432.25      182.20524      596188.16      594558.01      598550.58     -3837.7198     -2077.8575     -4257.0108      7401.7472      7540.5926      14942.34       142412.19      41.448204      41.448204      82.896409          16000 
     39000   3587.5256      605848.26      188.72183      606531.59      604712.47      606300.7       60.925592     -3069.5283     -450.17163      7419.1215      7780.5313      15199.653      142106.06      41.418484      41.418484      82.836968          16000 
     40000   3605.3484      600194.03      195.23654      600084.82      600469.82      600027.45      1870.4663     -5801.8636      534.57194      7455.9796      7625.2819      15081.262      142270.99      41.434502      41.434502      82.869004          16000 
     41000   3611.694       596492.8       201.75929      596488.91      595453.34      597536.15      1381.7333      533.65285      41.459692      7469.1025      7556.2374      15025.34       142428.78      41.449814      41.449814      82.899628          16000 
     42000   3613.3098      600813.23      208.29016      602919.24      601352.42      598168.03     -3195.1628     -2757.6615      1653.7525      7472.444       7608.5013      15080.945      142223.93      41.429932      41.429932      82.859865          16000 
     43000   3653.2847      600392.06      214.82196      602582.95      600316.59      598276.64     -1822.1629      698.99131      134.89293      7555.1135      7567.9807      15123.094      142279.24      41.435302      41.435302      82.870605          16000 
     44000   3585.0804      597712.21      221.35294      596350.08      596738.28      600048.27      1864.3274     -173.00344      2041.8879      7414.0647      7582.0413      14996.106      142398.15      41.446842      41.446842      82.893684          16000 
     45000   3596.1423      602337.49      227.88403      601199.83      602319.31      603493.33      938.4184       932.80735     -2783.7472      7436.9412      7731.1664      15168.108      142244.08      41.431889      41.431889      82.863779          16000 
     46000   3608.7721      605184.6       234.41927      605207.59      604738.98      605607.22     -718.78651     -1251.8456     -775.24233      7463.0599      7606.453       15069.513      142102.18      41.418107      41.418107      82.836215          16000 
     47000   3602.0566      595541.82      240.95314      594930.34      596364.32      595330.79     -3810.0015     -1969.787       2185.2307      7449.1722      7561.2322      15010.404      142498.74      41.456599      41.456599      82.913199          16000 
     48000   3577.7632      600803.07      247.48789      602209.97      598558.35      601640.88     -1607.5759     -326.25916      1791.5081      7398.9325      7645.0695      15044.002      142289.34      41.436283      41.436283      82.872565          16000 
     49000   3581.9113      600200.77      254.01945      598727.55      599761.3       602113.46     -399.75788      3295.9614     -35.86989       7407.511       7680.8861      15088.397      142269.55      41.434362      41.434362      82.868724          16000 
     50000   3549.5394      600412.28      260.551        600695.19      600849.85      599691.81      2346.828      -1152.7928     -717.19236      7340.5647      7624.5665      14965.131      142304.31      41.437736      41.437736      82.875472          16000 
     51000   3577.5735      602514.07      267.08194      602236.82      603549.75      601755.64     -517.30158      1090.3356      5810.2715      7398.5402      7779.0781      15177.618      142177.38      41.425412      41.425412      82.850825          16000 
     52000   3563.6006      602372.37      273.61296      602208.31      603606.51      601302.3       3192.6765      1432.9051     -2696.9846      7369.6439      7707.0417      15076.686      142205.59      41.428151      41.428151      82.856303          16000 
     53000   3580.4987      591794.29      280.14688      591248.09      593328.31      590806.47      2425.2012      1344.9147     -1794.6359      7404.5898      7566.2503      14970.84       142596.43      41.466071      41.466071      82.932141          16000 
     54000   3617.2471      602864.91      286.67683      602262.26      604525.71      601806.76      438.93984      1620.0013      1583.9045      7480.5867      7699.6179      15180.205      142210.29      41.428608      41.428608      82.857217          16000 
     55000   3610.4145      599402.33      293.20643      597392.23      600944.92      599869.83      763.81507      1944.2554     -1476.2914      7466.4566      7574.6811      15041.138      142269.53      41.43436       41.43436       82.86872           16000 
     56000   3576.3467      596444.28      299.73786      597026.13      597488.33      594818.38     -912.73854      112.26881     -2559.9205      7396.0031      7614.791       15010.794      142445.98      41.451482      41.451482      82.902965          16000 
     57000   3550.3783      603342.27      306.2681       602579.68      605632.5       601814.62      2460.1681      1845.5443      420.65223      7342.2997      7676.1782      15018.478      142174.74      41.425155      41.425155      82.850311          16000 
     58000   3627.1054      598663.74      312.79841      599615.99      597364.55      599010.66     -3342.1614     -907.76627     -1529.7134      7500.9739      7602.0707      15103.045      142319.12      41.439173      41.439173      82.878347          16000 
     59000   3610.6716      597288.53      319.33217      597458.33      597560.28      596846.98      2098.9827     -587.9295       213.14225      7466.9883      7496.3442      14963.332      142393.61      41.446402      41.446402      82.892805          16000 
     60000   3602.0657      603556.64      325.8723       604152.18      602906.56      603611.19     -5917.3357     -1941.6969      1433.28        7449.191       7710.6135      15159.805      142203.41      41.42794       41.42794       82.855881          16000 
     61000   3627.7187      600725.15      332.40918      599576.12      601916.49      600682.85     -472.06266     -2922.5726     -246.5379       7502.2421      7669.3077      15171.55       142237.94      41.431293      41.431293      82.862586          16000 
     62000   3565.2803      594473.07      338.94926      592326.16      595318.4       595774.66     -939.65279     -2149.2207      1129.694       7373.1174      7606.7195      14979.837      142478.19      41.454606      41.454606      82.909213          16000 
     63000   3653.7913      601320.26      345.48912      599735.82      600323.91      603901.06      2244.2595     -761.61669     -1.7478409      7556.1613      7652.5399      15208.701      142279.26      41.435305      41.435305      82.87061           16000 
     64000   3616.4986      602397.38      352.02887      603776.1       600345.75      603070.3      -5591.9576      1408.7764     -2814.8855      7479.0386      7596.9765      15076.015      142183.33      41.42599       41.42599       82.85198           16000 
     65000   3596.503       597800.91      358.57096      600502.96      595218.55      597681.23      3039.8351     -2495.3017     -898.72427      7437.6871      7561.8513      14999.538      142367.74      41.443892      41.443892      82.887783          16000 
     66000   3567.3244      602399.07      365.10668      604819         597504.28      604873.92      2792.3418     -1056.9715      40.801267      7377.3447      7640.7821      15018.127      142217.2       41.42928       41.42928       82.858559          16000 
     67000   3583.3149      598937.35      371.64086      599396.74      597178.42      600236.9      -1684.0737      2337.8058     -2123.6688      7410.4136      7660.7345      15071.148      142335.23      41.440737      41.440737      82.881475          16000 
     68000   3532.2435      589291.91      378.1775       589774.11      586701.89      591399.71      3552.416      -2611.64        3655.9871      7304.7962      7490.2018      14794.998      142618.33      41.468194      41.468194      82.936388          16000 
     69000   3587.8811      607346.88      384.71486      606635.89      607041.71      608363.05     -4023.0405     -2477.4546     -288.77487      7419.8567      7753.5324      15173.389      142094         41.417313      41.417313      82.834626          16000 
     70000   3602.7182      601197.89      391.25485      598639.29      602889.35      602065.04     -2038.6095     -2955.8591     -1030.1558      7450.5403      7541.7821      14992.322      142220.2       41.429571      41.429571      82.859141          16000 
     71000   3609.5236      601285.96      397.79487      601090.15      601155.41      601612.32     -1633.0712      3807.9345     -39.22583       7464.6142      7694.9975      15159.612      142347.49      41.441926      41.441926      82.883853          16000 
     72000   3578.5258      601331.59      404.33226      602039.55      601101.92      600853.3       3112.3049     -884.89037     -658.22934      7400.5097      7653.9728      15054.482      142276.96      41.435082      41.435082      82.870163          16000 
     73000   3624.3479      598462.35      410.86939      597712.1       598724.67      598950.26      3356.3522      466.84228     -486.54193      7495.2712      7646.2538      15141.525      142366.13      41.443736      41.443736      82.887472          16000 
     74000   3576.3255      599430.06      417.40922      599139         600360.21      598790.95     -1405.7475      1643.3606      1838.8052      7395.9594      7644.9316      15040.891      142273.72      41.434766      41.434766      82.869533          16000 
     75000   3570.1596      594861.21      423.945        594843.43      593804.97      595935.21     -1023.7578      1599.5331      2178.8755      7383.208       7715.8979      15099.106      142567.09      41.463227      41.463227      82.926454          16000 
     76000   3578.0971      609147.23      430.47853      610925.89      608392.87      608122.93     -1594.9112      1171.0241      4034.4405      7399.6231      7746.5328      15146.156      142023.34      41.410446      41.410446      82.820893          16000 
     77000   3600.6071      600747.14      437.01229      600150.18      600663.15      601428.1       3833.6067      2565.1269     -3460.6214      7446.1745      7665.9064      15112.081      142254.74      41.432924      41.432924      82.865849          16000 
     78000   3631.5901      596816.08      443.54367      596012.09      597247.71      597188.43     -3973.9143     -2612.3478     -1667.149       7510.2484      7528.7527      15039.001      142440.91      41.450991      41.450991      82.901981          16000 
     79000   3618.0429      601671.97      450.0754       600801.61      600664.89      603549.4      -376.04673     -3469.0366      1685.2829      7482.2323      7654.3117      15136.544      142253.22      41.432777      41.432777      82.865553          16000 
     80000   3585.1002      604769.41      456.60783      604231.09      605980.97      604096.17     -421.91063      3567.1477      4287.5967      7414.1058      7718.7873      15132.893      142132.13      41.421017      41.421017      82.842034          16000 
     81000   3588.5776      594105.18      463.14319      592955.83      595602.42      593757.29     -561.39783     -400.30991      1446.7164      7421.2971      7691.1299      15112.427      142519.44      41.458607      41.458607      82.917214          16000 
     82000   3588.1126      599917.01      469.67757      599449.19      599946.82      600355.01     -1646.3321     -443.51402     -956.43883      7420.3355      7607.9457      15028.281      142305.48      41.43785       41.43785       82.8757            16000 
     83000   3574.2518      603612.27      476.22265      603837.88      604481.11      602517.82      4581.3538     -1427.5492      4681.7431      7391.671       7665.1814      15056.852      142126.45      41.420466      41.420466      82.840931          16000 
     84000   3629.9199      596235.8       482.77362      593622.63      596075.19      599009.56     -278.95004      1299.6106      1901.0296      7506.7944      7578.958       15085.752      142420.84      41.449043      41.449043      82.898087          16000 
     85000   3602.6343      601184.48      489.32704      600547.2       601761.09      601245.16      252.92037      1441.6292     -604.67172      7450.3668      7702.4688      15152.836      142259.22      41.433359      41.433359      82.866718          16000 
     86000   3595.5826      597438.77      495.88287      597073.35      597203.47      598039.5       1443.1724      1265.4155      473.36884      7435.7838      7574.3001      15010.084      142324.73      41.439718      41.439718      82.879436          16000 
     87000   3640.1232      602412.07      502.44996      602672.53      603066.44      601497.25      1587.6085     -930.92219     -12.541176      7527.895       7736.5165      15264.412      142220.16      41.429567      41.429567      82.859134          16000 
     88000   3603.4576      606428.01      509.01571      604993.12      606207.91      608082.99     -3829.2724     -4933.8539     -1881.3089      7452.0695      7677.7283      15129.798      142007.36      41.408892      41.408892      82.817785          16000 
     89000   3538.4831      594557.56      515.57933      595043.23      593374.5       595254.94     -6613.8232      2852.1695      4689.0072      7317.7001      7570.7023      14888.402      142471.42      41.45395       41.45395       82.9079            16000 
     90000   3584.9828      601978.72      522.1454       599922.23      603546.78      602467.15     -2782.2152     -4956.8828      599.35077      7413.8629      7689.531       15103.394      142292.34      41.436575      41.436575      82.873149          16000 
     91000   3596.1815      602503.03      528.70745      601372.33      600970.13      605166.64     -1760.2138      1257.4246      4772.968       7437.0222      7668.0521      15105.074      142157.03      41.423436      41.423436      82.846871          16000 
     92000   3573.7931      596903.74      535.25778      598324.6       596793.29      595593.32      507.83665     -2392.7226      1385.241       7390.7222      7551.9171      14942.639      142372.73      41.444376      41.444376      82.888753          16000 
     93000   3568.6395      600298.52      541.81651      600475.68      599199.42      601220.45     -727.28706      289.16889     -2822.4787      7380.0644      7705.6268      15085.691      142275.89      41.434977      41.434977      82.869954          16000 
     94000   3592.8382      600204.58      548.38517      600937.03      600283.37      599393.35      4612.4444      1343.9803     -87.734575      7430.1081      7594.4697      15024.578      142255.63      41.43301       41.43301       82.86602           16000 
     95000   3646.7727      596667.15      554.95191      597809.83      594200.39      597991.24     -194.58843     -698.0536       1702.1095      7541.6464      7582.4925      15124.139      142441.97      41.451093      41.451093      82.902187          16000 
     96000   3581.0833      599894.01      561.52188      601513.61      598228.74      599939.67     -1249.4822      1879.5247     -1316.0418      7405.7987      7596.4901      15002.289      142315.46      41.438818      41.438818      82.877636          16000 
     97000   3608.7055      606392.8       568.09399      606106.14      605521.07      607551.2       1602.8238     -1033.8828      860.02741      7462.9223      7784.0415      15246.964      142043.76      41.412431      41.412431      82.824862          16000 
     98000   3563.2618      599776.74      574.66141      600613.77      600096.59      598619.85      1136.9836     -854.01889     -3179.4288      7368.9432      7657.4846      15026.428      142278.4       41.43522       41.43522       82.870441          16000 
     99000   3636.2216      599584.23      581.23122      600119.16      599721.94      598911.58      3448.85        2980.7812     -890.00861      7519.8266      7616.565       15136.392      142272.8       41.434677      41.434677      82.869354          16000 
    100000   3596.3077      599892.01      587.80636      598766.65      600413.14      600496.25      3035.1734     -923.64753      376.14293      7437.2832      7649.4164      15086.7        142333.22      41.440542      41.440542      82.881083          16000 
    101000   3585.9475      598361.48      594.37456      599903.98      596577         598603.45     -4762.0082      7283.8657      1352.238       7415.858       7588.9338      15004.792      142307.65      41.438061      41.438061      82.876121          16000 
    102000   3648.7685      606711.81      600.94665      606646.09      607721.48      605767.86      1417.6305      3323.0968     -2207.3406      7545.774       7792.548       15338.322      142107.47      41.418621      41.418621      82.837243          16000 
    103000   3577.5354      593533.02      607.51509      590987.24      594840.74      594771.08      1839.9801      2996.9843      2113.0073      7398.4614      7611.1558      15009.617      142494.12      41.456151      41.456151      82.912303          16000 
    104000   3580.7774      599165.02      614.08067      601765.39      597058.71      598670.96      3020.3809     -574.49727     -3091.0819      7405.1661      7587.4644      14992.631      142271.35      41.434537      41.434537      82.869074          16000 
    105000   3587.2997      604044.88      620.63097      605126.85      602430.5       604577.29     -864.18078      1318.6671     -2781.5777      7418.6543      7689.9727      15108.627      142121.68      41.420001      41.420001      82.840003          16000 
    106000   3588.1219      594256.06      627.17657      596241.81      590823.46      595702.9      -1878.7861     -455.87999      4691.8524      7420.3546      7585.4549      15005.81       142462.92      41.453126      41.453126      82.906252          16000 
    107000   3577.3085      599377.71      633.71928      600213.94      598887.39      599031.8       3991.1506     -395.10129     -3060.0789      7397.9922      7658.6874      15056.68       142343.95      41.441584      41.441584      82.883167          16000 
    108000   3592.0489      605538.07      640.25536      603947.5       607254.77      605411.92      2205.348      -652.64223      4251.8414      7428.476       7692.2582      15120.734      142131.2       41.420926      41.420926      82.841853          16000 
    109000   3591.5027      598962.54      646.7897       599882.69      600310.53      596694.42      5147.3451      1518.0067     -5157.7635      7427.3463      7524.245       14951.591      142302.46      41.437556      41.437556      82.875112          16000 
    110000   3604.1282      594545.12      653.32537      593366.85      596761.18      593507.34     -687.00795      2280.6039      412.08145      7453.4562      7554.6849      15008.141      142501.62      41.456879      41.456879      82.913758          16000 
    111000   3571.3722      606964.76      659.86268      607474.72      605703.79      607715.76     -24.390685      1732.3267      551.7872       7385.7157      7771.906       15157.622      142149.66      41.422719      41.422719      82.845439          16000 
    112000   3576.286       599991.52      666.3972       599730.66      600705.47      599538.44     -8.186519       1453.5906      963.48484      7395.8776      7561.2514      14957.129      142344.89      41.441674      41.441674      82.883349          16000 
    113000   3606.1405      596614.17      672.92579      597361.71      596346.07      596134.72     -1079.2071      4005.5491      275.12341      7457.6178      7554.285       15011.903      142438.03      41.450711      41.450711      82.901423          16000 
    114000   3557.7261      604520.37      679.44252      603992.6       605660.9       603907.61     -3769.6158     -2977.1339      1779.4525      7357.4952      7655.7627      15013.258      142154         41.423141      41.423141      82.846282          16000 
    115000   3570.9766      596412.57      685.95926      598847.51      595918.71      594471.49     -5894.7304     -99.04618       52.882283      7384.8977      7608.6335      14993.531      142437.98      41.450707      41.450707      82.901413          16000 
    116000   3572.7228      599939.28      692.47346      600843.87      600096.56      598877.4      -5709.9633      4010.2096     -4070.5921      7388.5089      7720.2421      15108.751      142322.1       41.439463      41.439463      82.878926          16000 
    117000   3628.9627      605176.95      698.98804      603883.94      606976.01      604670.89      1854.9777      3145.6759      4441.9335      7504.8148      7755.1421      15259.957      142161.63      41.423882      41.423882      82.847764          16000 
    118000   3540.6249      596239.12      705.50444      596703.53      596689.08      595324.75      3189.3713      750.7696       3209.1149      7322.1294      7603.2279      14925.357      142442.99      41.451192      41.451192      82.902385          16000 
    119000   3608.5142      599830.56      712.01548      601383.46      599805.92      598302.32     -3299.5626     -0.51813505     2669.5092      7462.5267      7647.9422      15110.469      142321.64      41.439418      41.439418      82.878837          16000 
    120000   3588.8449      602730.48      718.52901      601751.63      603741.89      602697.93      325.50256      2446.7876      3444.449       7421.8499      7584.9451      15006.795      142170.49      41.424742      41.424742      82.849485          16000 
    121000   3613.3444      599653.38      725.04219      599308.01      600367.73      599284.4      -2744.1791      1981.6479      4040.9968      7472.5156      7579.3018      15051.817      142333.52      41.440571      41.440571      82.881141          16000 
    122000   3616.1889      594519.84      731.58542      595200.54      595033.22      593325.75     -1596.1301     -1180.8261     -1840.8226      7478.3983      7595.5662      15073.964      142568.83      41.463396      41.463396      82.926791          16000 
    123000   3578.3278      606542.37      738.14791      607126.91      605825.1       606675.11     -3147.0205      2653.7726      1787.0038      7400.1002      7752.7287      15152.829      142024.14      41.410524      41.410524      82.821048          16000 
    124000   3594.7078      599152.57      744.71394      599625.29      598475.05      599357.35      1572.8771     -992.15548      2069.1514      7433.9746      7539.7911      14973.766      142278.25      41.435206      41.435206      82.870412          16000 
    125000   3597.5048      597579.6       751.28043      597735.85      597254.1       597748.84     -1539.247      -1743.093       636.87643      7439.7588      7556.8975      14996.656      142356.58      41.442809      41.442809      82.885618          16000 
    126000   3639.4218      603117.01      757.85652      602718.83      604381.77      602250.44      2236.3554      2830.4736      695.01343      7526.4446      7603.8245      15130.269      142222.49      41.429793      41.429793      82.859585          16000 
    127000   3579.1715      601950.29      764.43453      599408.34      605196.45      601246.07      4338.4873      1491.6192     -1736.3094      7401.845       7545.0827      14946.928      142231.78      41.430695      41.430695      82.86139           16000 
    128000   3589.3925      593117         771.01781      591347.38      594388.97      593614.65     -1121.3111      234.52017      1233.3545      7422.9823      7563.7757      14986.758      142569.52      41.463462      41.463462      82.926924          16000 
    129000   3563.0887      603047.75      777.59941      603288.66      603581.09      602273.51      1483.1912     -5092.069       956.8758       7368.5852      7633.6468      15002.232      142191.09      41.426744      41.426744      82.853487          16000 
    130000   3624.1165      602579.8       784.18124      602783.97      601579.22      603376.21      2807.7459      4757.1729     -2001.3008      7494.7928      7636.806       15131.599      142181.49      41.425811      41.425811      82.851622          16000 
    131000   3575.4238      599722.42      790.76424      602684.91      596591.75      599890.59     -787.32203      1749.8648     -2354.8866      7394.0946      7552.7811      14946.876      142290.2       41.436366      41.436366      82.872733          16000 
    132000   3599.5904      598005.73      797.34647      596408.85      598429.91      599178.41      1918.4944      344.11468     -1154.274       7444.0719      7703.2542      15147.326      142387.67      41.445826      41.445826      82.891652          16000 
    133000   3541.6049      605222.31      803.92969      606276.27      604316.84      605073.82     -3196.2627     -2878.8251      1108.8275      7324.1561      7777.3053      15101.461      142110.52      41.418918      41.418918      82.837835          16000 
    134000   3590.9613      597445.47      810.51202      597896.68      595081.33      599358.39     -2828.361      -2753.0541     -2769.5672      7426.2268      7537.5998      14963.827      142386.19      41.445682      41.445682      82.891364          16000 
    135000   3601.0715      594824.05      817.08684      594972.79      593935.71      595563.66      2205.7653      762.00288      660.4932       7447.1349      7552.1838      14999.319      142488.29      41.455586      41.455586      82.911172          16000 
    136000   3625.4802      607322.16      823.65736      607518.76      608252.92      606194.79     -2990.9399      2346.5819     -908.88007      7497.6129      7627.6871      15125.3        142096.87      41.417591      41.417591      82.835183          16000 
    137000   3560.2688      599504.48      830.23004      599499.28      597984.2       601029.95     -252.29298     -1277.9863      2152.6423      7362.7536      7591.5421      14954.296      142371.21      41.444228      41.444228      82.888456          16000 
    138000   3625.7832      599421.59      836.80037      601411.79      599467.05      597385.93      2813.4827     -719.58968     -1203.9927      7498.2396      7554.788       15053.028      142320.29      41.439287      41.439287      82.878574          16000 
    139000   3589.3947      604486.66      843.37387      604716.97      604821.21      603921.79     -3977.3241     -2404.2207      4619.4944      7422.9869      7626.8486      15049.835      142144.34      41.422203      41.422203      82.844406          16000 
    140000   3601.2001      598982.47      849.94269      597493.02      597940.65      601513.74      2663.1981      725.18121      1012.2952      7447.4008      7503.9049      14951.306      142373         41.444402      41.444402      82.888804          16000 
    141000   3615.8222      601729.33      856.51159      603364.51      600490.57      601332.92      2114.5527     -53.375986     -1167.0679      7477.6398      7636.5627      15114.203      142239.75      41.431469      41.431469      82.862938          16000 
    142000   3581.7652      605453.25      863.0846       603209.03      607116.5       606034.22      6478.7842      302.80535      1371.8734      7407.2089      7640.8804      15048.089      142047.94      41.412837      41.412837      82.825674          16000 
    143000   3599.4133      595329.69      869.64784      597000.45      594732.55      594256.09      2479.4106     -522.16653      3945.5473      7443.7058      7574.0569      15017.763      142541.45      41.460741      41.460741      82.921482          16000 
    144000   3596.7194      599359.82      876.21176      598648.07      600551.36      598880.04     -2374.9401      4450.9912     -1447.4816      7438.1347      7585.9167      15024.051      142329.48      41.440179      41.440179      82.880357          16000 
    145000   3599.6111      600031.45      882.78604      598054.71      600455.11      601584.54      4939.6663     -4494.268      -2063.587       7444.1147      7612.5937      15056.708      142325.08      41.439752      41.439752      82.879504          16000 
    146000   3567.3145      598240.35      889.35599      598750.9       599538.64      596431.52      2021.9317      3363.3251     -1151.4465      7377.3243      7722.0419      15099.366      142404.98      41.447505      41.447505      82.895011          16000 
    147000   3595.8526      607227.6       895.92879      606452.26      607855.78      607374.76     -2412.2268      426.54698      1319.6177      7436.342       7715.2039      15151.546      142007.26      41.408883      41.408883      82.817766          16000 
    148000   3595.6554      599516.69      902.50645      598916.46      600626.61      599007         411.46007      2112.4017     -1071.3915      7435.9343      7774.9316      15210.866      142352.36      41.442399      41.442399      82.884798          16000 
    149000   3604.4015      595426.41      909.0818       596954.37      594789.72      594535.14     -674.31922     -388.34142     -2333.9978      7454.0214      7520.1295      14974.151      142454.19      41.452279      41.452279      82.904558          16000 
    150000   3613.6838      602605.65      915.65126      603141.56      601076.23      603599.15     -345.34729      2618.6693     -293.50517      7473.2176      7744.8372      15218.055      142242.43      41.431729      41.431729      82.863458          16000 
    151000   3593.4604      602095.88      922.22743      601143.4       601351.61      603792.65     -1025.4151     -906.63059     -1729.0026      7431.3949      7635.2988      15066.694      142244.45      41.431925      41.431925      82.86385           16000 
    152000   3570.5916      597258.61      928.80282      597157.01      600716.02      593902.78      5078.8317      3087.5962     -209.05688      7384.1014      7617.2199      15001.321      142380.96      41.445175      41.445175      82.890349          16000 
    153000   3631.8719      600347.01      935.3768       600583.94      600899.39      599557.68      1669.5608      3381.8976      248.41519      7510.8312      7615.3204      15126.152      142349.17      41.44209       41.44209       82.88418           16000 
    154000   3620.6607      605963.6       941.94707      605704.13      604856.09      607330.57      1075.8625     -552.55518     -607.7924       7487.6461      7675.6094      15163.255      142058.54      41.413867      41.413867      82.827734          16000 
    155000   3618.3193      596918.3       948.51733      596977.53      596554.65      597222.72      3760.6153     -487.40335     -562.26965      7482.8039      7530.8354      15013.639      142418         41.448768      41.448768      82.897536          16000 
    156000   3646.9916      597113.81      955.08915      598861.16      595672.86      596807.41      3303.5656      1101.7053     -1619.0572      7542.0992      7607.2938      15149.393      142425.55      41.449501      41.449501      82.899002          16000 
    157000   3624.3364      604365.47      961.66252      606016.7       603526.68      603553.04      1036.1649     -2612.5614      1213.9133      7495.2475      7572.093       15067.34       142177.34      41.425408      41.425408      82.850816          16000 
    158000   3624.4693      601343.19      968.23191      601804.19      602521.86      599703.52      3781.1361      3072.7182     -1558.2916      7495.5223      7658.2191      15153.741      142250.98      41.432559      41.432559      82.865117          16000 
    159000   3609.8188      597300.91      974.80452      599039.35      596256.05      596607.33     -824.89915     -3522.696       272.22824      7465.2245      7616.1747      15081.399      142380.34      41.445114      41.445114      82.890229          16000 
    160000   3575.5131      597875.57      981.37611      597995.29      596750.15      598881.26      2683.7425      485.50647      721.74044      7394.2793      7640.6233      15034.903      142350.6       41.442229      41.442229      82.884457          16000 
    161000   3591.0926      607282.71      987.94556      605642.28      608343.43      607862.43     -1255.5376      1955.4893     -1568.6406      7426.4983      7695.6319      15122.13       141949.61      41.403279      41.403279      82.806558          16000 
    162000   3602.195       597152.9       994.51749      596808.12      597865.05      596785.53      290.53853     -163.77984      1883.6902      7449.4584      7618.4603      15067.919      142414.09      41.448389      41.448389      82.896778          16000 
    163000   3587.7068      599605.54      1001.0907      599962.56      598240         600614.06      1845.6142     -2229.0169      3649.7673      7419.4963      7651.6888      15071.185      142352.02      41.442366      41.442366      82.884733          16000 
    164000   3563.0557      605017.55      1007.6632      605807.67      605110.76      604134.22      1018.0522      2173.1932      565.56651      7368.5169      7706.4693      15074.986      142085.04      41.416441      41.416441      82.832883          16000 
    165000   3576.0738      597116.43      1014.2318      598104.83      597646.03      595598.42     -1303.8586     -257.18159      3987.721       7395.4389      7613.1513      15008.59       142382.18      41.445293      41.445293      82.890586          16000 
    166000   3598.8517      597697.14      1020.805       597021.58      599228.14      596841.71      747.63067     -2715.5295      519.61343      7442.5442      7534.5674      14977.112      142337.37      41.440944      41.440944      82.881889          16000 
    167000   3585.5862      605444.57      1027.3784      604678.1       608003.48      603652.14      703.34395      2540.1359      2656.5606      7415.1108      7787.9076      15203.018      142153.71      41.423113      41.423113      82.846226          16000 
    168000   3579.6997      598778.26      1033.9526      596792.72      600088.85      599453.2      -2943.2348     -1348.2309      2662.0992      7402.9374      7602.9939      15005.931      142340.44      41.441243      41.441243      82.882486          16000 
    169000   3626.815       599100.66      1040.5273      596935.87      599991.75      600374.35      2077.0653     -4750.4108     -4158.9158      7500.3734      7619.1666      15119.54       142350.8       41.442248      41.442248      82.884496          16000 
    170000   3572.032       601165.13      1047.0982      601195.09      602839.16      599461.14      1425.3879     -1760.5583     -3670.8117      7387.0802      7588.1314      14975.212      142268.15      41.434226      41.434226      82.868452          16000 
    171000   3599.399       594798.61      1053.6664      594190.19      595351.94      594853.69     -358.314       -1910.2385     -1704.9513      7443.676       7589.5599      15033.236      142554.03      41.461961      41.461961      82.923922          16000 
    172000   3590.7445      604551.25      1060.2345      603133.38      603473.74      607046.64      814.42601      6388.3039      1858.1474      7425.7784      7681.8901      15107.669      142161.01      41.423823      41.423823      82.847645          16000 
    173000   3624.0118      604029.11      1066.8068      604243.13      605508.43      602335.77      1592.9002      1865.5407     -836.64025      7494.5762      7727.8606      15222.437      142165.07      41.424216      41.424216      82.848433          16000 
    174000   3568.2749      597839.4       1073.3782      599711.58      595815.62      597990.99      947.39944      1012.1164     -56.374125      7379.3106      7582.0489      14961.359      142333.43      41.440562      41.440562      82.881125          16000 
    175000   3613.872       595375.3       1079.9494      596094.72      595029.11      595002.07     -153.89756      446.04334      1331.9433      7473.6068      7587.5824      15061.189      142473.77      41.454178      41.454178      82.908356          16000 
    176000   3570.9075      601294.47      1086.5201      601682.81      603336.47      598864.12     -1702.728       787.99944     -1947.3405      7384.7547      7656.3135      15041.068      142230.19      41.43054       41.43054       82.86108           16000 
    177000   3618.3661      601311.05      1093.092       599548.15      602814.1       601570.9       2037.3817      2950.0034     -2402.3038      7482.9007      7725.8756      15208.776      142319.13      41.439174      41.439174      82.878348          16000 
    178000   3581.023       594997.75      1099.6656      593759.58      594702.28      596531.38      6956.7551      106.6759       1973.136       7405.674       7536.6143      14942.288      142480.97      41.454876      41.454876      82.909752          16000 
    179000   3622.1926      603729.79      1106.2373      602918.55      603781.63      604489.2      -1288.4882     -108.8772      -3375.7285      7490.8141      7724.1136      15214.928      142183.91      41.426047      41.426047      82.852093          16000 
    180000   3652.045       604323.9       1112.808       604918.1       602829.4       605224.2       1956.9394     -956.43454      334.91311      7552.5498      7706.1467      15258.696      142218.32      41.429388      41.429388      82.858776          16000 
    181000   3589.6331      596945.43      1119.3839      597052.61      597399.97      596383.72     -678.91643     -461.01252      3395.759       7423.48        7596.6757      15020.156      142370.82      41.444191      41.444191      82.888382          16000 
    182000   3611.0098      598307.78      1125.9534      598671.13      597633.65      598618.55     -1610.855       860.16003     -2738.7092      7467.6877      7687.3456      15155.033      142414.92      41.448469      41.448469      82.896938          16000 
    183000   3587.199       602594.23      1132.527       602748         600747.21      604287.47     -154.23107     -1373.7572     -1696.6791      7418.446       7637.2105      15055.657      142137.24      41.421513      41.421513      82.843027          16000 
    184000   3566.1003      598828.08      1139.0954      599115.36      599033.89      598334.98     -5154.2648     -918.67001      318.30845      7374.8132      7629.1734      15003.987      142325.5       41.439793      41.439793      82.879585          16000 
    185000   3592.4057      590443.24      1145.6658      589223.63      592980.63      589125.46      625.15069      1055.6323      1140.354       7429.2137      7477.302       14906.516      142724.95      41.478525      41.478525      82.95705           16000 
    186000   3647.8034      604178.82      1152.2386      603268.94      602760.25      606507.27      1132.8104     -508.26174      4090.1927      7543.7781      7640.8156      15184.594      142220.81      41.42963       41.42963       82.85926           16000 
    187000   3619.2762      601248.23      1158.8095      602111.9       600888.21      600744.58      4979.6968     -1131.2465      433.24494      7484.7828      7585.2398      15070.023      142298.84      41.437206      41.437206      82.874411          16000 
    188000   3622.0397      593488.12      1165.3814      595836.2       591205.25      593422.9      -1496.4827      3425.0374     -503.91475      7490.4978      7573.1859      15063.684      142575.59      41.464051      41.464051      82.928102          16000 
    189000   3578.2745      601305.23      1171.9547      600020.36      601325.08      602570.24      1491.4568     -3929.3829     -1493.3822      7399.99        7609.2473      15009.237      142274.61      41.434853      41.434853      82.869707          16000 
    190000   3609.044       602031.08      1178.526       602565.64      600410.04      603117.56     -3460.9601      1418.485       1448.8527      7463.6223      7662.1163      15125.739      142285.65      41.435924      41.435924      82.871849          16000 
    191000   3619.2458      599900.31      1185.0959      600842.01      599271.9       599587         530.97206      677.3939       2175.4188      7484.72        7578.6415      15063.362      142329.26      41.440157      41.440157      82.880315          16000 
    192000   3548.853       594919.89      1191.6702      593920.62      595798.13      595040.92      425.84536     -3640.5437     -1516.1034      7339.1453      7536.2846      14875.43       142458.06      41.452654      41.452654      82.905308          16000 
    193000   3581.8259      604056.67      1198.2398      603876.38      605860.65      602432.99      2489.8         663.20863      1706.1102      7407.3343      7710.7904      15118.125      142120.21      41.419859      41.419859      82.839718          16000 
    194000   3556.163       604095.15      1204.8153      604588.28      603139.05      604558.12     -3237.0836     -1994.9766      3763.6311      7354.2626      7674.3247      15028.587      142147.42      41.422502      41.422502      82.845005          16000 
    195000   3614.9847      596044.54      1211.3913      598933.27      595735.69      593464.67     -3030.4582      1105.3183      3160.1288      7475.9079      7650.1361      15126.044      142483.11      41.455084      41.455084      82.910168          16000 
    196000   3586.2556      597075.61      1217.9629      598345.61      595964.87      596916.34     -3032.3778      5447.0918      3087.9911      7416.4951      7609.2166      15025.712      142356.89      41.442839      41.442839      82.885679          16000 
    197000   3671.6507      604842.13      1224.5364      604056.25      605962.29      604507.84      718.46982      1045.6301     -586.12778      7593.0951      7657.9475      15251.043      142172.05      41.424894      41.424894      82.849789          16000 
    198000   3586.5397      598823.48      1231.1073      599440.1       597165.49      599864.84      1184.7859      1164.2655     -61.756706      7417.0828      7588.0141      15005.097      142347.33      41.441911      41.441911      82.883823          16000 
    199000   3592.4232      595096.56      1237.6787      596094.94      597276.49      591918.26      53.72713      -1958.0461      1385.4762      7429.25        7511.5608      14940.811      142477.5       41.454539      41.454539      82.909079          16000 
    200000   3625.0752      605697.43      1244.2584      607252.01      605918.38      603921.92     -3402.4049      2177.4442     -226.76787      7496.7753      7723.2479      15220.023      142109.06      41.418775      41.418775      82.837551          16000 
    201000   3594.1135      601590.7       1250.8315      603043.74      602867.08      598861.27     -510.85732     -1821.55        894.97601      7432.7456      7564.8233      14997.569      142232.92      41.430806      41.430806      82.861612          16000 
    202000   3577.3994      596612.98      1257.4057      596473.19      596825.68      596540.08      2258.8833      240.20568      3526.579       7398.1802      7571.5539      14969.734      142437.79      41.450688      41.450688      82.901376          16000 
    203000   3614.0497      602454.71      1263.9881      600906.32      602460.03      603997.79      1459.9154      421.50287     -489.8844       7473.9742      7686.8564      15160.831      142242.24      41.431711      41.431711      82.863422          16000 
    204000   3600.9143      603898.25      1270.5734      603059.72      606213.31      602421.71     -3764.1227     -495.71199     -2074.418       7446.8098      7615.1455      15061.955      142151.64      41.422912      41.422912      82.845824          16000 
    205000   3640.0594      595709.43      1277.1547      597223.81      593836.55      596067.94      1504.625       1269.9033     -2791.07        7527.7631      7575.1441      15102.907      142436.1       41.450524      41.450524      82.901048          16000 
    206000   3575.3369      598920.27      1283.7383      599094.98      598740.85      598924.98      1034.1848      1149.6146      715.80523      7393.9149      7689.6163      15083.531      142390.49      41.446099      41.446099      82.892199          16000 
    207000   3566.1666      602223.62      1290.3193      603893.42      600569.71      602207.73      4573.182       2654.979       4008.0939      7374.9505      7662.9636      15037.914      142273.21      41.434718      41.434718      82.869435          16000 
    208000   3606.1512      598004.61      1296.9028      598558.71      597362.01      598093.12      1114.71       -1705.8264     -1554.0976      7457.64        7631.9522      15089.592      142418.6       41.448827      41.448827      82.897654          16000 
    209000   3596.236       597727.25      1303.4829      597478.22      597557.05      598146.48     -4522.6823      961.45118      1809.0869      7437.1349      7576.2977      15013.433      142380.98      41.445176      41.445176      82.890353          16000 
    210000   3615.8532      606296.26      1310.0501      606380.22      605908.85      606599.72      3275.205       310.63322     -1059.1762      7477.704       7680.5414      15158.245      142025.91      41.410696      41.410696      82.821392          16000 
    211000   3615.5577      596787.39      1316.6323      597157.04      597282.53      595922.6       1760.4927      1379.1346      2058.9043      7477.0929      7539.1234      15016.216      142394.15      41.446454      41.446454      82.892908          16000 
    212000   3609.6616      596071.48      1323.2176      597038.96      594797.36      596378.13     -2321.7626     -3682.1315     -4211.854       7464.8996      7626.3921      15091.292      142441.58      41.451056      41.451056      82.902112          16000 
    213000   3591.2105      601515.55      1329.8003      601481.67      602770.38      600294.59     -361.70219      1032.9616     -2727.9177      7426.7421      7650.6533      15077.395      142223.03      41.429845      41.429845      82.85969           16000 
    214000   3616.1261      597858.41      1336.3875      595428.71      598273.76      599872.76     -1278.4985      1467.9406      2936.3634      7478.2682      7623.4403      15101.708      142386.25      41.445688      41.445688      82.891375          16000 
    215000   3581.4111      601516.09      1342.9741      600742.38      602391.18      601414.7       2924.8511     -872.9904      -4163.1859      7406.4766      7626.1995      15032.676      142230.34      41.430555      41.430555      82.861111          16000 
    216000   3608.6541      598672.5       1349.5578      597370.88      599359.35      599287.27      3159.3633     -737.23161     -1878.0382      7462.8161      7672.1648      15134.981      142361.04      41.443242      41.443242      82.886483          16000 
    217000   3602.378       598522.24      1356.1431      597464.03      598350.25      599752.46      1987.612       2819.7676      1185.3233      7449.8367      7542.2253      14992.062      142303.46      41.437654      41.437654      82.875308          16000 
    218000   3593.8526      602759.81      1362.7174      605363.15      599472.59      603443.68     -2385.2072      2651.0077     -698.27661      7432.206       7747.6571      15179.863      142199.64      41.427574      41.427574      82.855148          16000 
    219000   3598.1683      600774.73      1369.2893      600927.44      598773.8       602622.95     -788.32397     -4216.0113     -1973.7455      7441.1311      7559.2927      15000.424      142251.45      41.432604      41.432604      82.865209          16000 
    220000   3604.9591      592902         1375.8562      592273.81      594689.51      591742.68      3552.8943     -117.07679      2041.5899      7455.1746      7504.2258      14959.4        142599.78      41.466396      41.466396      82.932792          16000 
    221000   3568.9998      603474.79      1382.4226      604948.59      603216         602259.77     -4271.4194     -3807.303       4488.6067      7380.8096      7691.9675      15072.777      142142.51      41.422025      41.422025      82.844049          16000 
    222000   3631.9858      601202.4       1388.9863      600902.64      599764.14      602940.43      335.95704     -187.60955     -3408.9815      7511.0667      7601.2582      15112.325      142250.63      41.432525      41.432525      82.865051          16000 
    223000   3604.4881      594693.73      1395.5541      592907.31      594780.38      596393.51      745.22594      5020.4373     -1479.4525      7454.2006      7601.8951      15056.096      142436.83      41.450595      41.450595      82.90119           16000 
    224000   3596.9382      602054.1       1402.1209      601743.63      602278.19      602140.47     -1196.9949     -1164.1867     -1187.9736      7438.5871      7621.6004      15060.187      142226.28      41.430161      41.430161      82.860321          16000 
    225000   3624.5197      605496.23      1408.6878      605156.08      604846.78      606485.83      2274.1447     -231.94        -2483.3882      7495.6265      7669.7122      15165.339      142112.65      41.419125      41.419125      82.83825           16000 
    226000   3613.6917      596151.85      1415.2579      595365.91      596378.22      596711.42     -2573.4623     -2895.7367      2765.6581      7473.234       7527.3375      15000.572      142429.11      41.449846      41.449846      82.899691          16000 
    227000   3634.8672      601516.04      1421.8244      601635.95      602847.44      600064.74      1820.2051     -2527.2062      1564.3374      7517.0254      7733.2998      15250.325      142305.54      41.437856      41.437856      82.875711          16000 
    228000   3586.6644      604596.72      1428.394       603578.8       605186.08      605025.28      2177.9779      5709.7877     -636.62382      7417.3406      7721.082       15138.423      142107.91      41.418664      41.418664      82.837327          16000 
    229000   3615.319       595636.39      1434.9636      592523.27      597380.4       597005.51      761.90849     -2239.2503      1979.8977      7476.5992      7627.1528      15103.752      142500.61      41.456781      41.456781      82.913562          16000 
    230000   3625.4125      598548.53      1441.5311      598065.91      597696.39      599883.29      1577.6988      3334.0508     -1751.6193      7497.473       7535.1588      15032.632      142344.81      41.441666      41.441666      82.883333          16000 
    231000   3569.5141      602357.13      1448.0983      604403.51      600063.16      602604.71      934.29376      299.77237     -740.23829      7381.8731      7562.8806      14944.754      142207.24      41.428312      41.428312      82.856624          16000 
    232000   3630.9575      599346.43      1454.6684      600701.47      597669.68      599668.14      118.32436      600.29495     -4058.385       7508.9403      7582.2863      15091.227      142347.15      41.441894      41.441894      82.883788          16000 
    233000   3591.3568      602310.53      1461.2357      601021.99      602818.94      603090.65      952.84884     -1842.4244      1955.681       7427.0446      7554.1995      14981.244      142223.99      41.429938      41.429938      82.859877          16000 
    234000   3613.0498      598939.3       1467.8045      599449.25      598213.99      599154.65      1871.5631      848.09871     -640.1824       7471.9064      7602.3855      15074.292      142332.13      41.440436      41.440436      82.880872          16000 
    235000   3602.6637      595915.51      1474.3728      595735.82      596296.92      595713.79     -1207.2381     -1616.9751      867.94545      7450.4276      7501.634       14952.062      142414.41      41.44842       41.44842       82.89684           16000 
    236000   3640.5461      601645.88      1480.9405      600009.45      602503.4       602424.8      -648.8922      -912.14232     -3250.8205      7528.7696      7614.5396      15143.309      142275.4       41.43493       41.43493       82.86986           16000 
    237000   3584.0702      606155.27      1487.51        604703.1       606847.92      606914.8       161.43991      2831.3249     -2447.6994      7411.9757      7661.3915      15073.367      142037.2       41.411793      41.411793      82.823586          16000 
    238000   3604.129       597750.62      1494.0783      598251.66      598402.24      596597.97      1815.6266      1777.9464      1484.9697      7453.458       7603.3739      15056.832      142378.78      41.444963      41.444963      82.889926          16000 
    239000   3630.5806      600775.91      1500.6465      599999.99      602125.92      600201.82      1939.8187     -4383.4652     -383.43454      7508.1607      7525.0684      15033.229      142303.92      41.437699      41.437699      82.875397          16000 
    240000   3607.4699      596539.41      1507.2137      595893.78      596471.89      597252.57      963.10738      2787.5796      2325.2114      7460.367       7687.5188      15147.886      142428.98      41.449833      41.449833      82.899666          16000 
    241000   3592.4395      603807.37      1513.7819      604952.54      603014.46      603455.12     -20.959729      133.32335     -1550.2986      7429.2837      7651.8276      15081.111      142212.12      41.428786      41.428786      82.857571          16000 
    242000   3615.2543      600956.91      1520.3498      599124.91      600994.48      602751.34      1203.8196      2257.067      -1560.3319      7476.4654      7596.6281      15073.093      142332.28      41.440451      41.440451      82.880902          16000 
    243000   3568.4754      596014.18      1526.9164      596183.85      597015.5       594843.2       327.12348     -306.06673     -2032.125       7379.725       7566.4104      14946.135      142419.77      41.448939      41.448939      82.897879          16000 
    244000   3590.2358      607598.37      1533.4871      608225.66      606348.74      608220.71      1810.0221      168.68975     -2739.8278      7424.7264      7671.6919      15096.418      142042.75      41.412332      41.412332      82.824665          16000 
    245000   3594.0675      599091.79      1540.0535      599582.78      597493.22      600199.36      2991.3697      2278.3398      1681.4531      7432.6504      7645.6535      15078.304      142369.09      41.444023      41.444023      82.888046          16000 
    246000   3650.428       597222.59      1546.622       598283.91      597336.95      596046.93      822.43675      179.88098     -373.50517      7549.2057      7534.144       15083.35       142438.26      41.450733      41.450733      82.901467          16000 
    247000   3577.8274      604175.57      1553.1901      603094.28      600990.98      608441.45      181.98904      3100.8181      369.63744      7399.0653      7673.4175      15072.483      142115.38      41.419389      41.419389      82.838779          16000 
    248000   3614.7252      600857.46      1559.7587      602336.01      598899.39      601336.98      3202.842       3401.2504      1067.2885      7475.3713      7683.475       15158.846      142310.29      41.438316      41.438316      82.876632          16000 
    249000   3615.9481      599593.7       1566.3295      599871.92      600632.34      598276.84     -1217.196       575.94014     -2654.1374      7477.9002      7559.0721      15036.972      142353.07      41.442468      41.442468      82.884937          16000 
    250000   3623.6167      598472.42      1572.9002      598671.94      598322.72      598422.59     -2309.1337     -1820.2961     -543.16852      7493.7591      7620.4367      15114.196      142381         41.445178      41.445178      82.890357          16000 
    251000   3613.2327      601098.84      1579.4687      600675.43      600972.24      601648.83      1238.3004     -567.461       -547.89564      7472.2847      7590.8555      15063.14       142268.49      41.434258      41.434258      82.868517          16000 
    252000   3607.8363      601879.46      1586.0331      599888.15      603309.78      602440.46     -1858.6305     -883.74562      838.31882      7461.1248      7507.0116      14968.136      142228.02      41.43033       41.43033       82.86066           16000 
    253000   3582.8738      594998.34      1592.6025      596147.58      593076.22      595771.21     -1086.7066     -259.22355      2445.0394      7409.5014      7619.0424      15028.544      142446.4       41.451523      41.451523      82.903047          16000 
    254000   3560.692       606419.97      1599.1699      605635.04      606368.16      607256.71      2866.0754     -2417.9023     -1212.3809      7363.6288      7667.9919      15031.621      142051.69      41.413202      41.413202      82.826403          16000 
    255000   3605.6567      599837.4       1605.7433      601755.55      599760.41      597996.23      943.37854     -2390.4593      3531.6581      7456.6173      7638.2893      15094.907      142273.53      41.434749      41.434749      82.869497          16000 
    256000   3574.0625      595423.64      1612.3144      593519.7       596909.54      595841.66     -1813.208       764.6541      -918.08985      7391.2795      7546.9771      14938.257      142438.21      41.450729      41.450729      82.901458          16000 
    257000   3616.5556      599003.08      1618.8846      598465.05      598586.54      599957.63      1492.861      -7389.3851      3931.5617      7479.1565      7648.9939      15128.15       142267.19      41.434132      41.434132      82.868264          16000 
    258000   3568.6665      600802.45      1625.4582      603094.1       598605.35      600707.89     -1047.1558     -625.77515     -3846.216       7380.1202      7652.5565      15032.677      142163.18      41.424033      41.424033      82.848066          16000 
    259000   3596.386       598919.33      1632.0285      599897.02      598744.37      598116.61      187.87467     -3495.7166     -1484.8326      7437.4452      7499.0453      14936.49       142264.87      41.433908      41.433908      82.867815          16000 
    260000   3609.6386      601744.22      1638.5957      603640.76      600349.54      601242.36      3042.7206     -5107.0377     -394.65691      7464.852       7593.7326      15058.585      142360.97      41.443235      41.443235      82.88647           16000 
    261000   3612.2233      605033.07      1645.1643      606365.48      604547.01      604186.72      1916.3296     -439.7774      -1328.7287      7470.1972      7634.1972      15104.394      142210.72      41.42865       41.42865       82.8573            16000 
    262000   3579.2202      599726.14      1651.7322      600151.55      598501.66      600525.22      2473.3714     -5678.2042      1928.6204      7401.9458      7541.7291      14943.675      142313.97      41.438674      41.438674      82.877347          16000 
    263000   3609.8572      598303.39      1658.2998      598779.86      597576.37      598553.94      549.7013      -857.12764     -2678.0734      7465.3039      7614.5618      15079.866      142366.84      41.443804      41.443804      82.887608          16000 
    264000   3624.6211      601736.72      1664.871       600313.74      605593.18      599303.23      5241.1205      1016.8578     -331.64402      7495.8362      7651.1895      15147.026      142286.41      41.435999      41.435999      82.871998          16000 
    265000   3588.3982      597294.34      1671.4395      596642.89      598803.5       596436.63      787.85819     -2466.2297      3454.0094      7420.926       7618.5534      15039.479      142457.6       41.45261       41.45261       82.90522           16000 
    266000   3561.5808      598733.11      1678.0101      599460.29      596736.41      600002.63     -3239.5654      93.107678     -315.42096      7365.4669      7589.5253      14954.992      142370.83      41.444192      41.444192      82.888384          16000 
    267000   3623.7719      603825.58      1684.5828      602152.81      606724.13      602599.8      -1130.8447      3126.6197     -95.619041      7494.0801      7649.7974      15143.877      142165.59      41.424267      41.424267      82.848533          16000 
    268000   3581.2119      597204.17      1691.1543      596602.08      597883.15      597127.29      5328.3693      4796.0734     -2906.4207      7406.0645      7613.7546      15019.819      142330.35      41.440263      41.440263      82.880526          16000 
    269000   3609.855       593129.26      1697.7246      593364.82      595079.92      590943.04     -2358.7116      1671.6205     -6036.7456      7465.2996      7556.2298      15021.529      142563.14      41.462844      41.462844      82.925687          16000 
    270000   3630.7316      604083.13      1704.2933      603743.85      603997.36      604508.17      1367.3354      2873.651       399.57757      7508.473       7672.3326      15180.806      142161.36      41.423856      41.423856      82.847713          16000 
    271000   3578.7007      598210         1710.8621      598575.62      598010.63      598043.74     -1601.7823      81.336015      561.81647      7400.8714      7632.0836      15032.955      142462.61      41.453095      41.453095      82.906191          16000 
    272000   3624.3087      597686.48      1717.4305      597893.95      597454.61      597710.89      2070.7398     -146.74018      3198.8156      7495.1903      7516.8639      15012.054      142394.46      41.446485      41.446485      82.89297           16000 
    273000   3601.1075      603293.59      1724.001       603320.74      602454.29      604105.74      2041.9884     -3153.5877     -435.3822       7447.2094      7678.5331      15125.742      142188.77      41.426519      41.426519      82.853037          16000 
    274000   3587.1509      597412.68      1730.5701      597902.06      597379.7       596956.27     -3995.7439     -436.223       -3709.4858      7418.3466      7560.5341      14978.881      142366.57      41.443779      41.443779      82.887557          16000 
    275000   3617.3951      598012.26      1737.1401      597423.16      598681.77      597931.85     -873.38277     -3186.1117      1593.0205      7480.8927      7609.1378      15090.03       142385.34      41.4456        41.4456        82.891199          16000 
    276000   3572.1443      604785.64      1743.7097      603464.75      604879.95      606012.23      2139.6503     -702.64197     -2775.9381      7387.3125      7646.0667      15033.379      142136.13      41.421406      41.421406      82.842811          16000 
    277000   3581.4685      596724.01      1750.2808      594991.79      598925.28      596254.97      2068.3647      2016.6839     -2769.607       7406.5953      7567.6626      14974.258      142431.8       41.450107      41.450107      82.900215          16000 
    278000   3616.8289      596888.82      1756.8534      596768.97      595246.55      598650.94     -2100.5488     -939.69755     -2077.9283      7479.7218      7684.067       15163.789      142463.91      41.453221      41.453221      82.906443          16000 
    279000   3587.9961      603616.17      1763.4287      603466.26      605709.96      601672.31      1951.4524      1456.168      -1542.0132      7420.0946      7679.5923      15099.687      142170.75      41.424768      41.424768      82.849537          16000 
    280000   3549.0834      600298.19      1770.001       597735.77      603433.43      599725.37      1943.0672     -1821.7059     -3824.7442      7339.6218      7599.7642      14939.386      142338.99      41.441102      41.441102      82.882204          16000 
    281000   3611.4751      598205.73      1776.5729      596263.89      599455.22      598898.08      47.92331      -1373.6975     -559.7797       7468.6499      7602.7955      15071.445      142397.63      41.446792      41.446792      82.893583          16000 
    282000   3614.3791      608834.58      1783.1445      608410.66      609588.64      608504.44      371.33828     -2915.0301      2974.2264      7474.6554      7729.6885      15204.344      142031.68      41.411256      41.411256      82.822513          16000 
    283000   3626.0777      594965         1789.7115      592308.23      595505.78      597080.99      3097.7926      1279.9074      399.87916      7498.8486      7554.9518      15053.8        142508.71      41.457566      41.457566      82.915132          16000 
    284000   3563.7606      598501.08      1796.2822      597048.27      598044.22      600410.73     -40.464966     -991.34669      1439.207       7369.9748      7567.4703      14937.445      142305.75      41.437876      41.437876      82.875751          16000 
    285000   3610.6583      598800.02      1802.8542      598096.44      596910.32      601393.31     -760.96475      1809.0611     -2076.3447      7466.9607      7666.4152      15133.376      142348.29      41.442005      41.442005      82.884009          16000 
[...]
   3930000   3606.5772      605882.31      6708.5588      604783.61      609040.9       603822.4       861.41803      1823.4265     -5032.5726      7458.521       15690.105      23148.626      140351.66      41.380913      41.380913      81.962921          16000 
   3931000   3581.1348      605826.67      6715.7452      607278.88      604896.69      605304.42     -6230.4462     -2291.3178     -2947.6326      7405.9052      15696.077      23101.983      140476.19      41.393148      41.393148      81.987154          16000 
   3932000   3590.0198      595938.99      6722.9311      593970.04      599202.94      594643.99     -2202.0784      696.29998      3251.7466      7424.2797      15545.841      22970.12       140828.38      41.427712      41.427712      82.055615          16000 
   3933000   3633.5381      595448.83      6730.1167      595989.44      594307.2       596049.84      247.1975       1278.6202      1005.0544      7514.277       15489.597      23003.874      140736.19      41.41867       41.41867       82.037706          16000 
   3934000   3640.4622      598680.71      6737.3013      599413.96      595648.99      600979.2       1681.0869      1402.2559      688.91309      7528.5962      15494.712      23023.308      140680.48      41.413204      41.413204      82.026879          16000 
   3935000   3583.8744      596961.79      6744.4899      597620.71      595151.16      598113.51      1451.8709      844.94583     -432.87586      7411.5707      15598.966      23010.536      140714.25      41.416517      41.416517      82.033442          16000 
   3936000   3601.5655      599635.43      6751.6734      600331.12      597982.01      600593.16      3327.947       305.36069      636.8986       7448.1566      15601.149      23049.306      140609.93      41.406279      41.406279      82.013164          16000 
   3937000   3609.5147      605068.43      6758.8683      606559.85      604900.27      603745.15     -4016.1476      944.38547      4005.7571      7464.5958      15672.85       23137.446      140373.16      41.383026      41.383026      81.967106          16000 
   3938000   3602.0839      599046.5       6766.0606      601656.43      597296.34      598186.72      3770.4821      35.704683     -986.96012      7449.2286      15563.963      23013.192      140702.97      41.41541       41.41541       82.031249          16000 
   3939000   3615.2099      600104.37      6773.2521      600769.59      599035.23      600508.28     -1978.0324     -7410.06        2656.246       7476.3736      15594.336      23070.71       140549.43      41.40034       41.40034       82.0014            16000 
   3940000   3631.3975      604046.64      6780.445       605474.23      601880.04      604785.67      3680.6259      247.91328     -767.9511       7509.8501      15625.587      23135.437      140376.85      41.383388      41.383388      81.967824          16000 
   3941000   3624.7091      607859.25      6787.6386      609943.71      606565.55      607068.49     -1463.222       37.236008     -6079.0109      7496.0182      15657.854      23153.872      140326.33      41.378423      41.378423      81.95799           16000 
   3942000   3568.9528      600418.82      6794.8351      597734.6       604275.4       599246.46      1758.2563      7005.8332      3144.1163      7380.7123      15706.29       23087.003      140502.92      41.395773      41.395773      81.992355          16000 
   3943000   3612.7215      596531.72      6802.0258      598035.09      596485.26      595074.8       2304.2806     -4576.0688     -2258.4501      7471.2275      15502.217      22973.445      140802.39      41.425163      41.425163      82.050567          16000 
   3944000   3605.3285      597622.75      6809.2244      598805.3       597822.44      596240.5       3265.4261      2471.9861     -519.99416      7455.9386      15563.455      23019.393      140679.08      41.413066      41.413066      82.026608          16000 
   3945000   3596.2654      602473.64      6816.4185      602014.81      605506.42      599899.67      2023.3969      7515.0824     -748.19612      7437.1958      15649.788      23086.984      140497.74      41.395264      41.395264      81.991346          16000 
   3946000   3638.8866      597248.45      6823.614       601532.04      596651.39      593561.93     -2489.1499     -4693.7762     -447.72877      7525.3378      15468.156      22993.494      140744.63      41.419498      41.419498      82.039346          16000 
   3947000   3632.1773      595583.51      6830.817       595082.06      597624.62      594043.86     -2261.2545      3054.8303      5406.2294      7511.4626      15447.209      22958.672      140836.97      41.428553      41.428553      82.057282          16000 
   3948000   3643.9737      599031.76      6838.0177      598948.43      598898.29      599248.57     -1130.8897      1039.0785      2017.1847      7535.8581      15461.33       22997.188      140731.88      41.418247      41.418247      82.036868          16000 
   3949000   3637.8594      602991.79      6845.2189      603521.66      604726.25      600727.45      2038.8785     -5905.0515      1487.5601      7523.2134      15523.638      23046.852      140600.17      41.405321      41.405321      82.011267          16000 
   3950000   3595.4962      594938.67      6852.4142      592928.37      598218.97      593668.68     -297.80691      1200.524      -386.58378      7435.605       15498.069      22933.674      140901.72      41.434902      41.434902      82.069856          16000 
   3951000   3598.6337      593690.1       6859.6141      590811.67      594903.31      595355.31     -570.50763      138.8767       762.56654      7442.0934      15481.485      22923.578      140930.34      41.437707      41.437707      82.075412          16000 
   3952000   3640.087       595894.36      6866.8105      600547.15      596351.25      590784.66     -3988.4213     -515.99132     -135.19551      7527.8203      15477.82       23005.641      140707.02      41.415807      41.415807      82.032036          16000 
   3953000   3634.8681      597732.65      6874.0082      598005.98      594998.06      600193.91     -243.40547      2306.9695     -4507.9306      7517.0274      15500.945      23017.972      140673.74      41.412542      41.412542      82.025569          16000 
   3954000   3630.6728      597314.3       6881.2029      597270.29      598366.25      596306.37     -1362.0406      614.18329      2414.7562      7508.3513      15488.076      22996.428      140729.06      41.41797       41.41797       82.036319          16000 
   3955000   3588.0335      595629.3       6888.3966      591597.67      597502.67      597787.56     -2468.0516     -1599.6766      2781.4789      7420.1718      15553.174      22973.346      140789.01      41.423851      41.423851      82.047968          16000 
   3956000   3609.2063      605301.09      6895.5905      606557.66      607103.87      602241.74      2491.3512      4969.6075     -3047.9753      7463.9579      15608.848      23072.806      140525.67      41.398007      41.398007      81.996779          16000 
   3957000   3644.7566      604410.09      6902.7866      601913.68      604477.18      606839.39      381.30452     -2894.9943      6353.3716      7537.4771      15548.164      23085.641      140490.21      41.394524      41.394524      81.989881          16000 
   3958000   3594.0314      601187.68      6909.9792      602440.38      601343.91      599778.76     -5318.5609     -2816.9104      508.73721      7432.5757      15566.425      22999.001      140718.34      41.416919      41.416919      82.034237          16000 
   3959000   3660.1267      596165.46      6917.1665      595003.7       596477.48      597015.19     -389.35069      878.52421     -2617.0979      7569.2629      15413.18       22982.443      140761.7       41.421172      41.421172      82.042662          16000 
   3960000   3612.2531      597047.9       6924.3622      598957.57      595907.84      596278.3      -4053.8399     -1539.825      -3245.9622      7470.2589      15471.254      22941.513      140870.76      41.431867      41.431867      82.063845          16000 
   3961000   3636.2845      599413.42      6931.5604      600577.55      600030.48      597632.24      614.99244      2461.7647      1915.9793      7519.9565      15521.399      23041.355      140603.29      41.405628      41.405628      82.011875          16000 
   3962000   3644.8068      599539.34      6938.7568      600771.27      600821.12      597025.63     -711.97815      1204.6641     -2343.4023      7537.581       15504.957      23042.538      140599.48      41.405254      41.405254      82.011134          16000 
   3963000   3612.5916      601153.09      6945.9537      602264.71      603601.66      597592.89      3617.225      -2309.1214     -2297.7203      7470.9588      15563.857      23034.816      140618.62      41.407133      41.407133      82.014855          16000 
   3964000   3609.4423      598624.77      6953.1469      599158.36      600894.25      595821.71     -816.84137     -1109.9069     -363.14112      7464.446       15535.28       22999.726      140711.16      41.416214      41.416214      82.032842          16000 
   3965000   3611.2759      599196.59      6960.3434      598466.16      602083.03      597040.57     -5724.5771      697.52438      4358.4363      7468.238       15572.865      23041.103      140599.19      41.405225      41.405225      82.011077          16000 
   3966000   3600.4429      610843.19      6967.5407      609889.3       610816.71      611823.56     -5883.5142     -2408.596      -2866.5291      7445.8349      15721.584      23167.419      140263.75      41.372271      41.372271      81.945804          16000 
   3967000   3588.1553      600902.91      6974.7341      599327.05      602081.23      601300.45      2220.4494     -4582.3057      2777.77        7420.4237      15617.527      23037.951      140605.36      41.405831      41.405831      82.012275          16000 
   3968000   3611.7686      600899.54      6981.9242      603092.74      600403.14      599202.73     -1675.7831      786.2331      -1703.8262      7469.2568      15558.719      23027.975      140631.67      41.408414      41.408414      82.017391          16000 
   3969000   3596.1874      597667.36      6989.1218      597954.29      598467.46      596580.32      745.21987     -758.53856      2891.8793      7437.0344      15580.484      23017.518      140658.34      41.411031      41.411031      82.022575          16000 
   3970000   3573.3173      592785.49      6996.316       589301.96      593867.79      595186.73      305.60764      3311.2628      6590.1082      7389.7383      15538.878      22928.616      140894.71      41.434214      41.434214      82.068495          16000 
   3971000   3582.8449      601024         7003.5118      603120.6       600928.93      599022.46      3375.155       4550.9922     -753.23461      7409.4417      15621.478      23030.92       140621.87      41.407451      41.407451      82.015486          16000 
   3972000   3605.6301      607389.88      7010.7116      609474.81      605840.79      606854.05      226.0305       418.18696     -451.30168      7456.5623      15680.46       23137.022      140335.5       41.379324      41.379324      81.959774          16000 
   3973000   3613.2473      600438.32      7017.9079      598432.66      603360.66      599521.63      810.59479     -381.22703      4695.7185      7472.3149      15617.878      23090.193      140460.51      41.391607      41.391607      81.984104          16000 
   3974000   3591.512       596160.59      7025.1085      598821.31      594529.54      595130.93      427.74242     -2967.0737      2351.4713      7427.3656      15565.054      22992.42       140720.65      41.417145      41.417145      82.034686          16000 
   3975000   3587.1857      599654.62      7032.3039      599431.05      600492.18      599040.63     -2142.9769      6324.9248      125.38424      7418.4185      15589.637      23008.055      140679         41.413058      41.413058      82.026591          16000 
   3976000   3603.422       601441.09      7039.511       602509.99      604452.35      597360.94      2103.3312      2327.9687      4238.8187      7451.9958      15567.966      23019.962      140645.78      41.409798      41.409798      82.020134          16000 
   3977000   3615.1732      595322.86      7046.7183      595666.27      596705.98      593596.34     -1719.555      -2781.7943     -1084.75        7476.2976      15492.758      22969.056      140780.65      41.423031      41.423031      82.046343          16000 
   3978000   3613.6177      598888.28      7053.9232      598979.99      602493.92      595190.93     -3327.2753     -889.60843     -391.40906      7473.0808      15541.848      23014.929      140655.78      41.41078       41.41078       82.022079          16000 
   3979000   3621.0446      600045.4       7061.1193      603038.78      599236.71      597860.7      -2253.4695      574.06958      1506.4067      7488.44        15559.462      23047.902      140568.41      41.402204      41.402204      82.005093          16000 
   3980000   3605.6684      604433.33      7068.3142      604003.8       602668.14      606628.04     -4594.3413     -1796.967       1476.7172      7456.6415      15634.933      23091.574      140447.85      41.390364      41.390364      81.981642          16000 
   3981000   3619.889       600082.96      7075.5122      600022.47      601377.61      598848.79      3698.0035      2052.2669      729.59341      7486.0501      15529.38       23015.43       140649.72      41.410185      41.410185      82.020901          16000 
   3982000   3621.2346      600015.11      7082.7037      602955.46      599995.47      597094.39      1147.6755     -4013.9829      6669.8455      7488.8329      15524.152      23012.984      140655.47      41.410749      41.410749      82.022017          16000 
   3983000   3610.171       599418.69      7089.8973      600385         603639.06      594232         639.75685      5189.6611      1206.3652      7465.9529      15576.661      23042.614      140575.58      41.402908      41.402908      82.006486          16000 
   3984000   3633.3172      600182.98      7097.0884      599187.86      598511.34      602849.74     -4614.092      -3305.6676     -2940.4053      7513.82        15506.426      23020.246      140631.47      41.408394      41.408394      82.017353          16000 
   3985000   3648.6859      603652.9       7104.2845      605135.01      603659.82      602163.86     -27.460934     -3942.8204      3032.5695      7545.603       15533.915      23079.518      140471.12      41.39265       41.39265       81.986168          16000 
   3986000   3608.6541      603099.24      7111.4842      603728.55      602955.23      602613.92      981.26731      1149.2438      2437.8819      7462.816       15645.292      23108.108      140392.97      41.384972      41.384972      81.970962          16000 
   3987000   3580.7095      603652.95      7118.6817      607125.73      600376.59      603456.53      460.01814     -6020.2227     -3327.4087      7405.0257      15645.402      23050.428      140545.59      41.399963      41.399963      82.000654          16000 
   3988000   3649.3183      596771.16      7125.8722      594409.58      600361.07      595542.84     -1448.4938     -874.43219      1665.2562      7546.9109      15435.009      22981.92       140727.96      41.417862      41.417862      82.036106          16000 
   3989000   3629.0985      597550.9       7133.0722      599405.2       598388.27      594859.23      1735.3785      636.85562      450.03357      7505.0958      15507.406      23012.502      140642.59      41.409486      41.409486      82.019515          16000 
   3990000   3602.8603      601919.73      7140.2772      600157.99      604714.42      600886.8      -2148.9175     -4164.2424     -1628.7489      7450.8342      15619.894      23070.729      140486.33      41.394143      41.394143      81.989126          16000 
   3991000   3618.7613      602004.42      7147.4795      601491.69      601796.49      602725.08     -2375.905      -485.22846      406.23283      7483.7181      15564.337      23048.055      140546.38      41.400041      41.400041      82.000807          16000 
   3992000   3615.7767      596742.07      7154.6764      600619.48      596984.94      592621.79      2686.2399     -1411.0929     -457.84093      7477.5457      15518.812      22996.358      140685.37      41.413683      41.413683      82.027829          16000 
   3993000   3578.2891      602224.37      7161.8759      603840.7       602523.75      600308.66      499.91161     -7090.8874     -4507.8387      7400.0202      15650.182      23050.202      140541.16      41.399528      41.399528      81.999792          16000 
   3994000   3601.2849      603596.34      7169.0741      603571.78      606220.39      600996.86      43.617517      2075.6613     -166.22625      7447.5763      15616.397      23063.973      140502.98      41.395779      41.395779      81.992367          16000 
   3995000   3604.791       603033.64      7176.2753      603187.27      600692.66      605221.01     -79.427502      2971.3401      3918.1037      7454.827       15595.373      23050.2        140538.79      41.399295      41.399295      81.999331          16000 
   3996000   3584.1772      603317.27      7183.4839      603001.67      604202.01      602748.11      3911.848       1048.6091     -809.4424       7412.1969      15619.267      23031.464      140587.32      41.40406       41.40406       82.008769          16000 
   3997000   3607.7784      600139.02      7190.6884      600231.73      601762.99      598422.35      1818.8364     -5547.6688     -3002.1382      7461.005       15553.285      23014.29       140632.18      41.408464      41.408464      82.017491          16000 
   3998000   3613.5232      594719.41      7197.893       592763.19      593363.22      598031.83     -1011.9696      3839.245       1105.0723      7472.8855      15476.619      22949.504      140805.53      41.42547       41.42547       82.051176          16000 
   3999000   3595.1759      592141.87      7205.0924      589679.9       592422.04      594323.68      3630.8406     -1161.1369     -2780.5562      7434.9427      15474.896      22909.839      140910.36      41.435749      41.435749      82.071534          16000 
   4000000   3606.3874      600072.6       7212.297       601259.56      601559.34      597398.91      2436.7486      490.91546     -1213.3036      7458.1283      15595.205      23053.333      140525.65      41.398005      41.398005      81.996776          16000 
Loop time of 7212.3 on 8 procs for 1000000 steps with 16000 atoms

Performance: 5.990 ns/day, 4.007 hours/ns, 138.652 timesteps/s
58.0% CPU use with 1 MPI tasks x 8 OpenMP threads

MPI task timing breakdown:
Section |  min time  |  avg time  |  max time  |%varavg| %total
---------------------------------------------------------------
Pair    | 6919.3     | 6919.3     | 6919.3     |   0.0 | 95.94
Neigh   | 12.318     | 12.318     | 12.318     |   0.0 |  0.17
Comm    | 40.981     | 40.981     | 40.981     |   0.0 |  0.57
Output  | 4.2001     | 4.2001     | 4.2001     |   0.0 |  0.06
Modify  | 209.58     | 209.58     | 209.58     |   0.0 |  2.91
Other   |            | 25.91      |            |       |  0.36

Nlocal:          16000 ave       16000 max       16000 min
Histogram: 1 0 0 0 0 0 0 0 0 0
Nghost:          14338 ave       14338 max       14338 min
Histogram: 1 0 0 0 0 0 0 0 0 0
Neighs:              0 ave           0 max           0 min
Histogram: 1 0 0 0 0 0 0 0 0 0
FullNghs:  1.64469e+06 ave 1.64469e+06 max 1.64469e+06 min
Histogram: 1 0 0 0 0 0 0 0 0 0

Total # of neighbors = 1644688
Ave neighs/atom = 102.793
Neighbor list builds = 31484
Dangerous builds = 0
Total wall time: 7:46:22
