
atom_style atomic
units metal
boundary p p p
#atom_modify sort 0 0.0
newton on

read_data data.lammps
Reading data file ...
  triclinic box = (0 0 0) to (4.3790145 4.3790145 4.3790145) with tilt (-0 0 0)
  1 by 1 by 1 MPI processor grid
  reading atoms ...
  8 atoms
  read_data CPU = 0.003 seconds
replicate 10 10 20
Replicating atoms ...
  triclinic box = (0 0 0) to (43.790145 43.790145 87.58029) with tilt (-0 0 0)
  1 by 1 by 1 MPI processor grid
  16000 atoms
  replicate CPU = 0.021 seconds

### interactions

pair_style flare
pair_coeff * * lmp.flare
Reading potential file lmp.flare with DATE: Thu

# compute unc all flare/std/atom L_inv_lmp.flare sparse_desc_lmp.flare
# compute MaxUnc all reduce max c_unc

mass 1 12.011000
mass 2 28.085000

thermo_style custom step temp press cpu pxx pyy pzz pxy pxz pyz ke pe etotal vol lx ly lz atoms    #c_MaxUnc
thermo 1000
timestep 0.0005
restart 100000 restart_*.dat

#################### Equilibrate at P and T_es ##############################
velocity all create $T 41928459 rot yes dist gaussian
velocity all create 2800 41928459 rot yes dist gaussian
fix mom all momentum 1000 linear 1 1 1 angular

fix 1 all npt temp $T $T $(100.0*dt) iso $P $P $(1000.0*dt)
fix 1 all npt temp 2800 $T $(100.0*dt) iso $P $P $(1000.0*dt)
fix 1 all npt temp 2800 2800 $(100.0*dt) iso $P $P $(1000.0*dt)
fix 1 all npt temp 2800 2800 0.050000000000000002776 iso $P $P $(1000.0*dt)
fix 1 all npt temp 2800 2800 0.050000000000000002776 iso 300000 $P $(1000.0*dt)
fix 1 all npt temp 2800 2800 0.050000000000000002776 iso 300000 300000 $(1000.0*dt)
fix 1 all npt temp 2800 2800 0.050000000000000002776 iso 300000 300000 0.5
dump 1 all custom 1000 1equil.bin id type x y z vx vy vz
run   10000 # report performance
Neighbor list info ...
  update every 1 steps, delay 10 steps, check yes
  max neighbors/atom: 2000, page size: 100000
  master list distance cutoff = 6
  ghost atom cutoff = 6
  binsize = 6, bins = 8 8 15
  1 neighbor lists, perpetual/occasional/extra = 1 0 0
  (1) pair flare/kk, perpetual
      attributes: full, newton on, kokkos_device
      pair build: full/bin/kk/device
      stencil: full/bin/3d
      bin: kk/device
Per MPI rank memory allocation (min/avg/max) = 15.9 | 15.9 | 15.9 Mbytes
   Step          Temp          Press           CPU            Pxx            Pyy            Pzz            Pxy            Pxz            Pyz           KinEng         PotEng         TotEng         Volume           Lx             Ly             Lz          Atoms   
         0   2800           55537.333      0              55258.481      55664.454      55689.064     -388.53912      174.99747     -439.29551      5790.4926     -4109.4047      1681.0878      167941.93      43.790145      43.790145      87.58029           16000 
      1000   2795.8389      299481.42      6.4131107      300263.21      299916.61      298264.42      1650.3066     -338.63759      1454.255       5781.8872      3182.1731      8964.0603      155008.74      42.635896      42.635896      85.271793          16000 
      2000   2804.8687      300542.45      12.795744      300300.53      300277.72      301049.1       503.37245      793.44624      475.22309      5800.5613      2968.3661      8768.9274      154933.62      42.629008      42.629008      85.258016          16000 
      3000   2800.4837      300873.61      19.179786      300982.62      300829.81      300808.4      -712.71623      900.13603      1341.1243      5791.4928      3035.8722      8827.365       154859.65      42.622222      42.622222      85.244445          16000 
      4000   2812.4186      299253.31      25.566311      300574.31      298879.46      298306.16     -421.85124      265.51179      197.24913      5816.1747      2993.659       8809.8337      154948.42      42.630365      42.630365      85.260729          16000 
      5000   2818.7719      300396.23      31.952041      300696.52      301281.76      299210.4       820.18111     -1299.5761     -2563.7227      5829.3135      2974.423       8803.7365      154881.7       42.624246      42.624246      85.248491          16000 
      6000   2791.9086      298711.66      38.337888      298813.77      297575.39      299745.82     -1162.4828      1111.7978     -1262.8157      5773.7594      3061.3091      8835.0685      155017.17      42.636669      42.636669      85.273338          16000 
      7000   2808.3328      300884.38      44.721479      300861.92      300186.57      301604.64     -412.96318     -318.93034     -2938.9655      5807.7252      2994.0722      8801.7973      154829.95      42.619497      42.619497      85.238994          16000 
      8000   2809.8708      298653.33      51.106698      297271.54      299969.77      298718.67      909.52774     -3667.1904     -528.18539      5810.9058      3041.2719      8852.1777      154940.67      42.629654      42.629654      85.259308          16000 
      9000   2763.2393      297762.63      57.488811      298341.41      298220.02      296726.46     -325.26931     -1631.4244     -1833.9867      5714.4703      2991.7563      8706.2266      154991.38      42.634304      42.634304      85.268608          16000 
     10000   2824.1573      302723.08      63.87382       304083.26      301051.46      303034.51      308.32134     -1403.7781      1178.0381      5840.4506      3093.9551      8934.4057      154766.15      42.613643      42.613643      85.227286          16000 
Loop time of 63.8738 on 8 procs for 10000 steps with 16000 atoms

Performance: 6.763 ns/day, 3.549 hours/ns, 156.559 timesteps/s
61.6% CPU use with 1 MPI tasks x 8 OpenMP threads

MPI task timing breakdown:
Section |  min time  |  avg time  |  max time  |%varavg| %total
---------------------------------------------------------------
Pair    | 60.943     | 60.943     | 60.943     |   0.0 | 95.41
Neigh   | 0.067843   | 0.067843   | 0.067843   |   0.0 |  0.11
Comm    | 0.30943    | 0.30943    | 0.30943    |   0.0 |  0.48
Output  | 0.012845   | 0.012845   | 0.012845   |   0.0 |  0.02
Modify  | 2.2687     | 2.2687     | 2.2687     |   0.0 |  3.55
Other   |            | 0.272      |            |       |  0.43

Nlocal:          16000 ave       16000 max       16000 min
Histogram: 1 0 0 0 0 0 0 0 0 0
Nghost:          13628 ave       13628 max       13628 min
Histogram: 1 0 0 0 0 0 0 0 0 0
Neighs:              0 ave           0 max           0 min
Histogram: 1 0 0 0 0 0 0 0 0 0
FullNghs:  1.47876e+06 ave 1.47876e+06 max 1.47876e+06 min
Histogram: 1 0 0 0 0 0 0 0 0 0

Total # of neighbors = 1478762
Ave neighs/atom = 92.422625
Neighbor list builds = 214
Dangerous builds = 0
run  990000
Per MPI rank memory allocation (min/avg/max) = 16.08 | 16.08 | 16.08 Mbytes
   Step          Temp          Press           CPU            Pxx            Pyy            Pzz            Pxy            Pxz            Pyz           KinEng         PotEng         TotEng         Volume           Lx             Ly             Lz          Atoms   
     10000   2824.1573      302723.08      0              304083.26      301051.46      303034.51      308.32134     -1403.7781      1178.0381      5840.4506      3093.9551      8934.4057      154766.15      42.613643      42.613643      85.227286          16000 
     11000   2806.5041      303431.95      6.3864052      303297.5       302878.22      304120.14     -939.60639     -474.46397      804.90541      5803.9432      3003.8461      8807.7893      154649.75      42.602957      42.602957      85.205914          16000 
     12000   2799.2426      297101.46      12.775591      297221.89      296926.16      297156.33      2577.7732     -263.19343     -922.1362       5788.9263      3041.7785      8830.7048      155117.73      42.645887      42.645887      85.291774          16000 
     13000   2794.86        300934.29      19.166557      300830.59      299210.81      302761.46      672.71634      457.73668     -429.21178      5779.8629      3013.0723      8792.9353      154796.43      42.616422      42.616422      85.232844          16000 
     14000   2818.903       300865.4       25.557866      300807.38      300610.67      301178.16      1447.3704     -185.83678      2096.2397      5829.5846      3056.3758      8885.9604      154884.6       42.624511      42.624511      85.249022          16000 
     15000   2799.949       299556.26      31.945122      299765.74      299538.78      299364.26      969.5716       1272.9886      126.45873      5790.387       2978.5111      8768.8981      154888.88      42.624904      42.624904      85.249809          16000 
     16000   2782.3818      303147.26      38.335001      303857.71      302370.38      303213.69     -2032.8059     -1743.6281      1402.8294      5754.0576      3064.8958      8818.9534      154749.63      42.612126      42.612126      85.224253          16000 
     17000   2821.2597      300507.73      44.722819      301616.57      300062.98      299843.62      664.2659       66.918829      284.62925      5834.4583      3010.9834      8845.4417      154888.7       42.624888      42.624888      85.249776          16000 
     18000   2761.7464      295760.89      51.113376      295002.33      295861.24      296419.09     -1913.3049      885.42308      1443.1214      5711.3829      3028.5594      8739.9423      155110.98      42.645268      42.645268      85.290535          16000 
     19000   2818.0813      303393.48      57.505099      303699.37      303441.12      303039.96     -1137.9918      742.63594      76.642594      5827.8854      3088.9834      8916.8688      154772.07      42.614186      42.614186      85.228371          16000 
     20000   2824.6614      299537.57      63.895849      299708.68      300513.49      298390.54      1835.0082     -1474.5197      732.86802      5841.4932      3001.2731      8842.7663      154945.4       42.630088      42.630088      85.260176          16000 
     21000   2775.9539      298429.26      70.28667       297939.22      298789.82      298558.74      1287.8946      873.07647      877.47768      5740.7645      2987.8189      8728.5834      154917.06      42.627489      42.627489      85.254978          16000 
     22000   2783.2486      304208.87      76.677512      303472.92      304993.32      304160.36     -1710.1774     -488.48226      723.45438      5755.8501      3056.9216      8812.7717      154667.3       42.604568      42.604568      85.209137          16000 
     23000   2825.5928      299081.82      83.068092      300068.64      298369.64      298807.19      456.53671      660.89992     -2337.4306      5843.4193      3026.0512      8869.4704      154924.96      42.628214      42.628214      85.256428          16000 
     24000   2754.2688      295733.56      89.460604      296895.2       294167.77      296137.7       1824.7977      2110.4583      1525.557       5695.919       2960.4111      8656.3301      155057.83      42.640396      42.640396      85.280793          16000 
     25000   2827.3262      302303.96      95.852067      302187.32      301541.82      303182.75     -615.58934     -340.38281     -316.35022      5847.0041      3049.6898      8896.694       154726.05      42.609962      42.609962      85.219925          16000 
     26000   2779.8803      299891.09      102.24303      300441.35      299979.96      299251.95     -1677.5519      923.15858     -152.70702      5748.8844      3042.9901      8791.8745      154887.87      42.624812      42.624812      85.249624          16000 
     27000   2784.3756      297906.63      108.6337       297754.05      298034.15      297931.68      670.37808      878.70684      403.01183      5758.1808      3097.392       8855.5728      155009.86      42.635999      42.635999      85.271997          16000 
     28000   2789.8168      302173.01      115.02423      302083.47      304072.93      300362.62     -1321.6652      4031.2509     -494.19507      5769.4334      3051.1633      8820.5967      154746         42.611794      42.611794      85.223587          16000 
     29000   2786.9598      297020.08      121.4145       296996.75      297200.06      296863.44      1560.4092     -3674.5192     -343.09053      5763.5249      3010.7383      8774.2632      155020         42.636928      42.636928      85.273857          16000 
     30000   2800.8085      300766.73      127.80534      301315.42      300979.55      300005.22      603.26967     -1951.8952     -257.38045      5792.1647      3011.4291      8803.5937      154868.37      42.623022      42.623022      85.246045          16000 
     31000   2801.8825      303323.92      134.196        302599.32      302247.33      305125.1      -2634.9809     -56.518273      965.75686      5794.3856      3082.1998      8876.5853      154708         42.608305      42.608305      85.21661           16000 
     32000   2792.6345      299770.3       140.5876       300745.99      298635.87      299929.04      214.97844     -678.48977     -1127.9561      5775.2606      2987.2794      8762.54        154920.68      42.627821      42.627821      85.255643          16000 
     33000   2792.7573      301620.95      146.97765      303707.68      299148.9       302006.28      314.436       -2168.0841     -63.467612      5775.5145      3069.7762      8845.2907      154824.25      42.618975      42.618975      85.237949          16000 
     34000   2842.9021      300514.93      153.36754      299730.46      301340.23      300474.11     -289.14796      459.99103      1142.1407      5879.2155      3010.3684      8889.5839      154839.14      42.620341      42.620341      85.240682          16000 
     35000   2806.8357      296308.7       159.75855      296262.08      297223.3       295440.72     -1326.4611     -2822.668      -620.18409      5804.6291      2970.6559      8775.285       155054.31      42.640074      42.640074      85.280149          16000 
     36000   2825.8698      301692.69      166.14782      300233.53      301751.83      303092.73      1036.0975     -2490.0379      1217.2597      5843.9922      3048.0502      8892.0424      154794.71      42.616264      42.616264      85.232528          16000 
     37000   2802.5535      300356.95      172.53756      299277.43      300043.3       301750.13     -575.5564      -237.04393     -2275.2787      5795.7733      3006.4157      8802.189       154898.4       42.625777      42.625777      85.251554          16000 
     38000   2838.132       295194.17      178.93148      294955.94      296311.57      294314.99      521.06437      462.29784     -1091.5232      5869.3507      3045.8411      8915.1918      155144.89      42.648376      42.648376      85.296752          16000 
     39000   2819.6751      303719.85      185.32501      303298.18      303255.45      304605.92     -111.58769     -75.03447       182.42882      5831.1813      3020.3873      8851.5686      154606.1       42.598948      42.598948      85.197896          16000 
     40000   2798.5869      298954.03      191.71977      299211.22      298533.28      299117.58      2305.8547      2121.3691     -1095.9949      5787.5702      3061.6631      8849.2333      154931.87      42.628847      42.628847      85.257694          16000 
     41000   2788.7338      300473.11      198.11516      300697.68      300361.13      300360.52      1701.802      -989.98702      1636.5556      5767.1937      3056.8912      8824.085       154897.63      42.625707      42.625707      85.251414          16000 
     42000   2775.972       302794.38      204.50924      302522.61      301951.79      303908.73     -147.46934     -238.46678      933.83901      5740.8019      3054.0644      8794.8663      154671.69      42.604972      42.604972      85.209944          16000 
     43000   2784.889       299770.29      210.90216      299875.21      299316.93      300118.72      160.89135     -91.284175      1688.1739      5759.2425      3070.0976      8829.3401      154860.53      42.622303      42.622303      85.244606          16000 
     44000   2786.1613      297162.05      217.29876      297705.07      295951.56      297829.51      2671.9523      2108.2494      3583.6108      5761.8737      3023.6342      8785.5079      155057.86      42.640399      42.640399      85.280798          16000 
     45000   2784.6215      304979.06      223.69486      305431.25      304942.09      304563.83     -21.821133     -506.84944     -1255.7923      5758.6893      3051.3675      8810.0568      154513.27      42.590421      42.590421      85.180842          16000 
     46000   2780.2038      298465.7       230.09234      298193.54      298551.07      298652.49      3169.2393     -457.34395     -2440.8461      5749.5535      3066.5055      8816.0589      154943.88      42.629949      42.629949      85.259898          16000 
     47000   2795.9454      298736.83      236.48938      297237.35      300286.94      298686.19      192.3326      -454.16743     -110.26608      5782.1075      3019.3628      8801.4702      154998.31      42.63494       42.63494       85.26988           16000 
     48000   2794.1618      301394.76      242.88528      301510.52      301357.58      301316.19     -557.74076     -1516.0451     -3672.8814      5778.419       3097.483       8875.9021      154801.59      42.616895      42.616895      85.23379           16000 
     49000   2813.4589      297316.62      249.28174      297224.26      297066.77      297658.83     -876.04719     -144.507        1172.6389      5818.3259      3046.9805      8865.3064      155021.12      42.637032      42.637032      85.274063          16000 
     50000   2803.4254      298867.82      255.67752      298345.79      298790.33      299467.34      714.68556     -3667.8582      687.55588      5797.5764      2999.9793      8797.5557      154954.67      42.630938      42.630938      85.261876          16000 
     51000   2814.79        304680         262.07533      304326.02      304644.52      305069.45     -1130.7547      2169.3182     -1408.7398      5821.0788      3110.5533      8931.6321      154679.72      42.605709      42.605709      85.211418          16000 
     52000   2803.5747      297274.56      268.47174      296386.72      297749.07      297687.89      851.01888     -2413.6334     -190.48274      5797.8851      3005.3147      8803.1999      154975.77      42.632874      42.632874      85.265747          16000 
     53000   2801.439       298494.54      274.86742      298222.38      299038.54      298222.71      666.05743      664.30967      1168.2816      5793.4684      3108.9752      8902.4436      154969.87      42.632332      42.632332      85.264664          16000 
     54000   2793.6382      304901.39      281.26542      305970.45      303852.04      304881.67     -249.39839      957.53521     -70.894519      5777.3362      3024.4478      8801.784       154598.81      42.598279      42.598279      85.196558          16000 
     55000   2779.8415      296400.13      287.66232      295266.56      296170.67      297763.16     -888.42904     -238.97132      1537.8557      5748.8041      3026.0238      8774.8279      155063.17      42.640886      42.640886      85.281773          16000 
     56000   2786.7729      299138.04      294.05822      302082.17      297278.73      298053.2       375.64389     -1003.661      -19.393714      5763.1386      2929.7602      8692.8988      154882.79      42.624345      42.624345      85.24869           16000 
     57000   2811.2659      301705.41      300.45494      302067.8       302112.05      300936.38      1194.4363      294.85945      2100.9383      5813.7908      3052.5759      8866.3667      154746.58      42.611847      42.611847      85.223694          16000 
     58000   2776.758       300200.88      306.85119      300579.24      299360.65      300662.75      116.63409     -1533.9618      826.93835      5742.4272      3015.6756      8758.1028      154857.84      42.622057      42.622057      85.244114          16000 
     59000   2817.2261      297396.9       313.24513      295573.03      300071.36      296546.31      575.51426      3037.8622     -2513.2805      5826.1166      2994.0787      8820.1953      155033.5       42.638166      42.638166      85.276332          16000 
     60000   2810.5854      301061.22      319.64185      301697.34      300666.13      300820.19     -408.31359      1219.2124     -560.15004      5812.3835      3063.6311      8876.0147      154787.21      42.615576      42.615576      85.231152          16000 
     61000   2806.0262      298996.2       326.03774      298669.05      299246.37      299073.19     -1539.5103     -556.75612      600.7486       5802.955       3046.9793      8849.9343      154946.45      42.630185      42.630185      85.26037           16000 
     62000   2809.4305      294373.6       332.43266      293907.89      294800.82      294412.09     -1468.3948     -2137.4504     -227.44819      5809.9951      3003.5188      8813.5139      155196.77      42.653129      42.653129      85.306257          16000 
     63000   2794.7915      302517.14      338.82846      302951.17      302075.93      302524.31      267.61565     -1214.4073      1006.6618      5779.7212      3032.7843      8812.5055      154721.8       42.609572      42.609572      85.219144          16000 
     64000   2816.9915      299400.42      345.22371      298976.16      300055.25      299169.84      2159.6579     -1786.6131     -4.9415989      5825.6316      3045.5053      8871.1369      154933.83      42.629027      42.629027      85.258055          16000 
     65000   2780.493       299387.91      351.61824      299574.56      298670.26      299918.92      225.62646     -74.794771      1508.4051      5750.1515      3004.0246      8754.1761      154962.5       42.631656      42.631656      85.263312          16000 
     66000   2788.2214      301849.28      358.01385      302789.48      301186.54      301571.81     -3194.6428     -1912.4147     -1267.1854      5766.134       3032.7007      8798.8347      154808.96      42.617571      42.617571      85.235142          16000 
     67000   2780.292       301104.02      364.4089       302249.54      300766.27      300296.27      564.28205     -258.17453      130.82009      5749.7357      3030.4401      8780.1758      154800.46      42.616792      42.616792      85.233584          16000 
     68000   2783.999       295598.32      370.80299      295220.87      297056.15      294517.94     -2168.8687      1121.5159     -514.1044       5757.4021      3038.5673      8795.9694      155160.24      42.649782      42.649782      85.299564          16000 
     69000   2799.5915      305248.55      377.19835      305923.45      304991.81      304830.39      948.48615     -184.06292     -12.492258      5789.6478      2968.9796      8758.6274      154578.9       42.59645       42.59645       85.1929            16000 
     70000   2808.2071      301215.02      383.59318      300942.48      301880.07      300822.5      -1626.619      -790.60012     -1769.8353      5807.4652      3025.6379      8833.1031      154798.26      42.61659       42.61659       85.233179          16000 
     71000   2810.4388      297505.83      389.98875      295773.23      298447.25      298297.02      116.94759      3078.5928     -1089.3888      5812.0804      3055.1156      8867.196       155108.25      42.645018      42.645018      85.290036          16000 
     72000   2792.8841      302431.98      396.38422      302512.64      302587.32      302195.99      705.8108      -682.59869     -1574.1782      5775.7766      3028.9125      8804.6891      154762.46      42.613304      42.613304      85.226607          16000 
     73000   2810.0922      300119.76      402.78166      301182.97      299118.51      300057.8       899.50796      607.35832      33.71283       5811.3636      3007.4588      8818.8223      154910.68      42.626903      42.626903      85.253807          16000 
     74000   2803.6913      299850.11      409.17595      300328.67      300181.18      299040.48      1102.401       903.51084      962.13983      5798.1264      2983.2351      8781.3614      154910.91      42.626925      42.626925      85.25385           16000 
     75000   2805.6288      300801.28      415.57029      300859.31      300893.03      300651.49     -811.53594      2324.6472      1937.08        5802.1331      3079.3542      8881.4873      154843.19      42.620712      42.620712      85.241425          16000 
     76000   2798.3905      293976.3       421.9672       295355.01      291747.63      294826.25     -100.24116      3422.3061     -1413.2821      5787.164       2937.5161      8724.6802      155186.39      42.652178      42.652178      85.304355          16000 
     77000   2834.1574      300577.91      428.3628       300361.15      300814.67      300557.91     -465.62048      31.020309      441.23904      5861.1313      3007.088       8868.2192      154888.37      42.624857      42.624857      85.249714          16000 
     78000   2802.1823      303209.32      434.75824      302458.21      302981.88      304187.89     -29.057494      2026.8665     -1075.2068      5795.0057      3119.3444      8914.3501      154755.78      42.612691      42.612691      85.225382          16000 
     79000   2792.6635      298927.23      441.1542       298217.03      299855.63      298709.02     -1607.8521      814.2608      -1579.6554      5775.3204      3044.2094      8819.5298      154988.49      42.63404       42.63404       85.26808           16000 
     80000   2799.2883      299023.42      447.5488       297737.07      299555.74      299777.46      3938.2855     -220.68721     -741.62671      5789.0207      3055.2391      8844.2598      154911.31      42.626962      42.626962      85.253923          16000 
     81000   2780.1069      300985.6       453.94407      301378.41      300569.77      301008.61     -941.09463      419.7586      -1902.3233      5749.3531      3026.2232      8775.5763      154798.79      42.616638      42.616638      85.233277          16000 
     82000   2789.884       299134.57      460.3395       299498.01      298937.73      298967.95      328.90199     -9.2295764      2722.7225      5769.5723      3018.0628      8787.6351      154913.18      42.627133      42.627133      85.254265          16000 
     83000   2798.1765      301734.2       466.73403      300857.85      302385.2       301959.55     -1852.8375     -340.7835      -657.3995       5786.7215      3055.4903      8842.2118      154845.89      42.62096       42.62096       85.24192           16000 
     84000   2786.0796      301420.94      473.13157      300236.96      301222.5       302803.37      467.7189       941.28524     -1361.228       5761.7047      3014.5558      8776.2605      154790.34      42.615863      42.615863      85.231726          16000 
     85000   2796.3417      293256.21      479.5298       293365.1       293049.91      293353.63     -2088.112      -160.58998      1271.8259      5782.927       2968.4171      8751.3441      155183.19      42.651884      42.651884      85.303769          16000 
     86000   2797.1485      300605.59      485.92702      300557.02      300471.24      300788.52      2691.5044     -1338.0971     -1090.6886      5784.5956      2979.3102      8763.9058      154843.82      42.620771      42.620771      85.241541          16000 
     87000   2803.0858      302273.46      492.32536      301964.4       300813.83      304042.14     -1498.7614     -232.43493     -2328.0591      5796.8741      3120.3682      8917.2424      154819.51      42.618539      42.618539      85.237079          16000 
     88000   2818.2457      296725.35      498.72556      297421.23      296494.04      296260.8      -2002.2426      894.78961      2446.6987      5828.2252      2965.4901      8793.7153      155072.79      42.641768      42.641768      85.283537          16000 
     89000   2773.6401      300211.39      505.12566      300528.42      300039.84      300065.91     -1340.8566     -215.77455      1311.6764      5735.9794      2985.9833      8721.9627      154819.04      42.618496      42.618496      85.236993          16000 
     90000   2793.6651      299729.36      511.52799      299740.3       300537.41      298910.37     -76.846218      2622.945      -930.08103      5777.3918      3067.6938      8845.0856      154963.6       42.631758      42.631758      85.263515          16000 
     91000   2791.5489      299268.07      517.93626      299616.88      299578.46      298608.87     -17.942855      1443.8443     -1140.3635      5773.0153      2981.7371      8754.7525      154946.2       42.630161      42.630161      85.260323          16000 
     92000   2820.8224      305696.04      524.34249      306074.01      304424.41      306589.72      1513.1733      1866.1123      1958.9677      5833.554       3048.6881      8882.2421      154620.14      42.600237      42.600237      85.200475          16000 
     93000   2809.658       298532.4       530.75318      298553.59      298909.35      298134.25     -1487.6404     -256.98782     -1829.9211      5810.4657      2966.0427      8776.5084      154898.22      42.625761      42.625761      85.251521          16000 
     94000   2791.4342      298510.6       537.1636       300174.04      296844.28      298513.48     -62.389672     -1597.378       1548.2326      5772.7782      3046.833       8819.6112      155039.93      42.638755      42.638755      85.277511          16000 
     95000   2829.9397      300733.83      543.57356      301480.18      300019.66      300701.66     -311.11331      2250.3258     -496.45298      5852.4089      2977.2518      8829.6607      154817.98      42.618399      42.618399      85.236798          16000 
     96000   2810.1086      300304.5       549.98205      300030.95      300506.49      300376.06      668.50423     -1402.2486     -1000.6904      5811.3974      3047.0595      8858.4569      154923.39      42.628069      42.628069      85.256139          16000 
     97000   2805.2194      299492.99      556.38609      299290.98      299177.25      300010.74      2128.6697     -610.61585      97.546926      5801.2864      3003.3818      8804.6682      154928.57      42.628544      42.628544      85.257089          16000 
     98000   2809.7506      298072.05      562.79188      297982.19      298342.82      297891.13     -864.46941      626.76229     -1199.4133      5810.6571      3049.0888      8859.746       155036.29      42.638422      42.638422      85.276844          16000 
     99000   2794.1095      306755.73      569.2022       306130.55      306007.11      308129.52     -324.86642     -415.98743      1954.7797      5778.3107      3029.8132      8808.124       154530.32      42.591987      42.591987      85.183974          16000 
    100000   2830.7457      297925.15      575.62205      297722.15      299297.8       296755.51     -586.09499     -1457.1671      1235.9009      5854.0758      2942.4917      8796.5674      155045.23      42.639241      42.639241      85.278482          16000 
    101000   2819.1565      298786.16      582.03049      298080.61      300537.96      297739.92     -1616.8762     -2326.6924     -931.1287       5830.1089      3048.0917      8878.2007      154991.95      42.634357      42.634357      85.268713          16000 
    102000   2770.0575      301539.39      588.43906      299662.04      301286.03      303670.09     -276.29695     -1540.7203      1131.6755      5728.5706      2992.432       8721.0026      154767.13      42.613733      42.613733      85.227466          16000 
    103000   2807.1083      295658.94      594.85171      296483.69      295589.9       294903.24      596.3118       80.029819     -93.354973      5805.1928      3005.1949      8810.3877      155147.19      42.648586      42.648586      85.297172          16000 
    104000   2797.0198      299042.98      601.26412      299043.13      298585.68      299500.14     -756.31046      443.34611      591.6283       5784.3295      3006.9965      8791.326       154917.07      42.627489      42.627489      85.254979          16000 
    105000   2819.1009      304093.27      607.67581      304791.76      303551.53      303936.51      1992.163      -149.77542      674.05851      5829.9939      3038.555       8868.5488      154664.06      42.604271      42.604271      85.208541          16000 
    106000   2767.3725      298077.39      614.08795      297037.16      297647.91      299547.09      458.27414     -988.01901     -2719.2627      5723.0177      3062.3817      8785.3994      154973.78      42.632691      42.632691      85.265382          16000 
    107000   2779.0692      300005.62      620.49337      300900.92      300235.5       298880.44     -100.85438     -829.04096     -1565.5315      5747.2069      2990.7525      8737.9594      154839.85      42.620406      42.620406      85.240811          16000 
    108000   2806.0725      299368.02      626.89466      299724.81      300348.32      298030.95      2807.2195      111.18992     -3459.6643      5803.0507      3059.7283      8862.779       154921.53      42.627899      42.627899      85.255798          16000 
    109000   2764.3351      297617.38      633.29639      296194.1       297497.21      299160.83     -131.89928      2002.9003      274.57103      5716.7363      2970.2427      8686.9791      155005.61      42.63561       42.63561       85.271219          16000 
    110000   2767.8052      303384.28      639.69637      302902.63      302419.97      304830.24     -371.77529     -988.60988     -1713.5095      5723.9126      3045.2818      8769.1944      154707.71      42.608279      42.608279      85.216557          16000 
    111000   2784.3434      302489.32      646.09616      302785.44      302089.55      302592.96      1323.643       455.00177      1481.3604      5758.1142      3104.9665      8863.0807      154771.27      42.614112      42.614112      85.228225          16000 
    112000   2817.1453      294899.06      652.49479      295901.95      295192.45      293602.77      1977.7574      2285.4918      1089.6476      5825.9496      3021.5192      8847.4688      155159.37      42.649702      42.649702      85.299405          16000 
    113000   2791.6982      300345.92      658.89175      300535.94      300365.89      300135.94     -2130.6085     -1392.2506      1473.678       5773.3242      3028.5009      8801.8251      154858.86      42.62215       42.62215       85.2443            16000 
    114000   2781.2817      303965.51      665.28763      304375.19      304363.55      303157.78     -304.4505       1099.8703      550.48648      5751.7825      3153.3097      8905.0922      154732.75      42.610577      42.610577      85.221153          16000 
    115000   2795.2449      297706.63      671.68434      297833.94      296292.46      298993.47      552.64965     -1657.998      -917.50666      5780.6589      2957.2569      8737.9157      155017.84      42.63673       42.63673       85.27346           16000 
    116000   2806.3636      300715.12      678.07898      301533.34      300341.63      300270.39      780.64278      139.41452     -1783.5571      5803.6527      3059.4723      8863.125       154852.61      42.621577      42.621577      85.243154          16000 
    117000   2781.2526      299690.29      684.47651      300368.15      299940.06      298762.64      195.03491      1127.7865      3078.9895      5751.7223      3060.3026      8812.0249      154874.52      42.623587      42.623587      85.247173          16000 
    118000   2824.0127      296157.06      690.87091      294252.96      297578.14      296640.08      788.6618       1099.9554     -2581.9713      5840.1516      3018.9598      8859.1114      155126.14      42.646657      42.646657      85.293315          16000 
    119000   2782.2329      302301.54      697.26384      302764.28      302311.32      301829         1247.4709      2574.0615     -3184.7423      5753.7496      3052.245       8805.9946      154757.21      42.612822      42.612822      85.225644          16000 
    120000   2790.6412      301480.07      703.6569       300761.38      301522.15      302156.67      3233.5657      2020.4502      2547.9979      5771.1383      3061.8251      8832.9634      154811.57      42.617811      42.617811      85.235621          16000 
    121000   2768.0526      294748.31      710.04952      294124.11      294130.6       295990.22     -657.18411      1370.5162     -3144.2453      5724.4244      3043.9898      8768.4142      155205.76      42.653952      42.653952      85.307904          16000 
    122000   2777.2591      302017.57      716.44099      302303.62      301566.45      302182.64      2054.1598      1094.1811      1023.5566      5743.4637      3005.7971      8749.2608      154760.61      42.613134      42.613134      85.226268          16000 
    123000   2818.3584      300306.94      722.83298      301639.13      299025.62      300256.07      2994.5017      1505.3575      436.05356      5828.4584      3020.4318      8848.8902      154978.9       42.63316       42.63316       85.266321          16000 
    124000   2807.4336      298717.82      729.22344      298727.26      297465.31      299960.9       480.1922      -4144.495      -2104.5726      5805.8656      3004.7818      8810.6474      154985.19      42.633737      42.633737      85.267474          16000 
    125000   2808.9352      303977.89      735.61358      304026.47      303615.92      304291.29     -447.35067      153.87554      2745.4168      5808.9708      3097.0221      8905.9929      154748.81      42.612052      42.612052      85.224103          16000 
    126000   2776.3199      296624.86      742.00415      297625.57      297089.85      295159.16      1708.6508     -2392.2365     -1018.3085      5741.5213      2968.5399      8710.0612      155022.33      42.637143      42.637143      85.274285          16000 
    127000   2786.8145      298948.69      748.39514      299703.57      299117.03      298025.46     -554.1561       748.55509     -11.530492      5763.2245      3079.0174      8842.2419      154999.79      42.635076      42.635076      85.270152          16000 
    128000   2791.9001      303694.08      754.79352      303185.37      303100.54      304796.33     -55.770232      343.69529      822.9911       5773.7418      3030.9235      8804.6653      154631.85      42.601313      42.601313      85.202626          16000 
    129000   2821.7212      299350.23      761.19519      300440.04      298325.85      299284.79      703.0111      -1147.9579     -1065.534       5835.4128      3014.1826      8849.5954      155004.16      42.635476      42.635476      85.270953          16000 
    130000   2781.0665      298282.8       767.59511      296828.61      298382.57      299637.21      1511.6188      1092.7435     -394.12741      5751.3374      3005.7597      8757.0971      154972.18      42.632544      42.632544      85.265088          16000 
    131000   2789.8435      302513.36      773.99812      302436.29      303993.68      301110.12     -102.72725     -138.75639     -251.53464      5769.4886      3079.6925      8849.1811      154752.43      42.612384      42.612384      85.224767          16000 
    132000   2801.6753      299865.58      780.40771      299586.11      299879.85      300130.78      391.01759      1632.0059     -76.103766      5793.9571      2978.0297      8771.9868      154833.48      42.619822      42.619822      85.239643          16000 
    133000   2785.7328      296856.44      786.81383      296436.82      297301.34      296831.17      1565.0779      762.23185     -207.1704       5760.9874      2953.405       8714.3924      155041.24      42.638876      42.638876      85.277752          16000 
    134000   2803.8405      302341.09      793.22289      301442.65      303226.5       302354.11      732.57888      674.02704     -63.927075      5798.4349      3066.7863      8865.2212      154773.79      42.614344      42.614344      85.228688          16000 
    135000   2800.4943      301426.12      799.63548      302677.22      301216.77      300384.38      22.034422     -258.80475     -1619.7346      5791.5147      2994.8936      8786.4083      154765.78      42.613608      42.613608      85.227217          16000 
    136000   2778.9798      297738.21      806.0428       298516.76      297726.63      296971.25      802.28497      1375.462      -2254.11        5747.0221      3000.3352      8747.3574      155011.82      42.636179      42.636179      85.272358          16000 
    137000   2805.3957      299770.42      812.45366      299605.89      299754.99      299950.37      1059.3587     -1386.1044     -1664.8674      5801.651       3076.7855      8878.4365      154901.65      42.626076      42.626076      85.252151          16000 
    138000   2781.5466      300456.28      818.86461      301534.72      301061.14      298772.98      3052.0074     -576.34353     -1129.1887      5752.3302      3055.5151      8807.8454      154838.82      42.620311      42.620311      85.240622          16000 
    139000   2799.2348      296368.29      825.27319      295767.86      296660.03      296676.99     -3182.0144     -2584.5509     -1260.1784      5788.9102      3021.9221      8810.8323      155049.45      42.639629      42.639629      85.279257          16000 
    140000   2833.8279      299988.77      831.6843       299873.3       298863.86      301229.14      2220.2825     -1922.0143      3379.2881      5860.4497      2993.3388      8853.7885      154874.99      42.62363       42.62363       85.247259          16000 
    141000   2820.473       304385.24      838.09468      303481.17      304981.54      304693         591.36089     -343.55949      434.79434      5832.8313      3061.5699      8894.4012      154722.27      42.609615      42.609615      85.219231          16000 
    142000   2776.4768      295435.07      844.50843      294526.7       296802.26      294976.26     -501.80454      251.09614     -1498.5983      5741.8458      2975.4389      8717.2847      155156.68      42.649456      42.649456      85.298911          16000 
    143000   2796.9356      298840.84      850.92055      297744.44      299420.64      299357.44     -1061.384      -395.18206      951.28827      5784.1552      3047.3924      8831.5477      154976.53      42.632943      42.632943      85.265886          16000 
    144000   2795.9811      301306.91      857.33288      301407.9       300982.04      301530.81      1968.2882     -545.97051     -102.13895      5782.1814      2961.6537      8743.8351      154787.8       42.61563       42.61563       85.23126           16000 
    145000   2791.8185      298141.79      863.74694      297580.86      298156.02      298688.49      1455.3861     -1393.2917      343.68801      5773.573       3059.5021      8833.075       154911.02      42.626935      42.626935      85.253871          16000 
    146000   2778.9282      303745.78      870.15797      303357.15      301834.76      306045.42      1531.8185     -118.99945     -2560.8997      5746.9154      3053.7838      8800.6992      154666.47      42.604492      42.604492      85.208984          16000 
    147000   2813.1047      298277.12      876.56983      299114.44      298314.5       297402.41     -1182.848      -1048.9839     -368.14741      5817.5935      3031.6229      8849.2164      154979.16      42.633184      42.633184      85.266369          16000 
    148000   2765.7764      298191.61      882.98314      299919.23      296201.58      298454.02     -1741.7055     -213.25873     -734.06943      5719.7169      3011.0069      8730.7239      154939.41      42.629539      42.629539      85.259078          16000 
    149000   2783.3821      302381.73      889.39627      302321.88      303388.85      301434.45     -1105.5283     -1832.0235      1734.1524      5756.1262      3112.6739      8868.8001      154752.92      42.612429      42.612429      85.224858          16000 
    150000   2811.5452      299416.58      895.80201      299633.15      299221.11      299395.48      395.21325      52.856718     -559.48168      5814.3685      2944.2928      8758.6612      154880.41      42.624127      42.624127      85.248253          16000 
    151000   2783.4411      297656.9       902.21268      298050.17      297109.14      297811.41      3293.4661     -1664.7011      469.88386      5756.2483      3046.1565      8802.4048      154978.37      42.633112      42.633112      85.266223          16000 
    152000   2776.8416      303072.07      908.62147      302404.12      303416.61      303395.49     -590.73386      412.02308     -206.13421      5742.6002      3054.0956      8796.6958      154630.78      42.601215      42.601215      85.202429          16000 
    153000   2800.6418      297274.34      915.03238      297011.21      298113.71      296698.09      1619.0633     -125.42042      67.514463      5791.8199      3045.8745      8837.6944      155052.88      42.639943      42.639943      85.279886          16000 
    154000   2763.7515      296119.63      921.44517      294975.12      296189.64      297194.13     -466.10858     -1023.1052     -771.59248      5715.5294      2937.1631      8652.6926      155048.16      42.63951       42.63951       85.27902           16000 
    155000   2822.106       303948.33      927.85633      303376.89      302643.31      305824.8       1838.173       71.767558     -760.9554       5836.2085      3041.939       8878.1475      154718.23      42.609244      42.609244      85.218489          16000 
    156000   2797.7204      299008.26      934.27713      300529.02      297411.08      299084.67     -195.50347      150.82177     -303.05574      5785.7783      3070.7226      8856.5009      154932.5       42.628905      42.628905      85.25781           16000 
    157000   2790.1654      298508.01      940.69932      298651         299316.79      297556.22     -2534.4862      293.50552      1063.08        5770.1544      2956.1221      8726.2764      154928.48      42.628537      42.628537      85.257074          16000 
    158000   2786.2885      303381.81      947.10639      303963.32      302491.43      303690.69      1897.1006     -1401.8415     -962.25084      5762.1367      3096.9856      8859.1223      154713.92      42.608848      42.608848      85.217696          16000 
    159000   2814.0467      297645.58      953.55883      298451.32      296926.06      297559.35     -288.4206       2207.0728      465.18849      5819.5417      2995.4488      8814.9905      155024.99      42.637387      42.637387      85.274773          16000 
    160000   2802.761       295558.8       960.03318      297054.21      295026.74      294595.46      1957.0159      3845.2925      1984.9673      5796.2024      3041.187       8837.3894      155199.39      42.653368      42.653368      85.306737          16000 
    161000   2822.3063      303608.55      966.50147      303961.61      303725.45      303138.6      -1207.6069      2167.8881     -1094.7588      5836.6227      3044.7402      8881.3629      154724.55      42.609824      42.609824      85.219649          16000 
    162000   2808.6253      300030.77      972.94881      299919.68      299746.16      300426.47     -2706.427      -1608.5208     -387.73224      5808.33        3002.3594      8810.6894      154928.4       42.628529      42.628529      85.257059          16000 
    163000   2824.9537      296523.71      979.37703      295335.52      297517.43      296718.17      1767.3405      1000.1782      2662.364       5842.0976      3027.5257      8869.6234      155161.88      42.649932      42.649932      85.299864          16000 
    164000   2807.9652      301582.27      985.80465      301197.07      302127.83      301421.92     -3972.4248     -3089.9877     -1545.1156      5806.9648      3019.9307      8826.8955      154828.62      42.619376      42.619376      85.238752          16000 
    165000   2836.5349      298641.56      992.2569       298731.14      298981.1       298212.43     -309.58388      600.53569     -1632.391       5866.048       2958.2076      8824.2556      154972.58      42.632581      42.632581      85.265162          16000 
    166000   2809.8505      299042.39      998.73111      300678.04      297468.66      298980.48     -445.86087     -1090.2246      308.79544      5810.8636      2927.879       8738.7427      154904.62      42.626347      42.626347      85.252695          16000 
    167000   2785.8016      302961.48      1005.1913      303193.72      303063.57      302627.16     -791.50135      1696.1785      2073.6761      5761.1298      3075.7302      8836.86        154711.63      42.608639      42.608639      85.217278          16000 
    168000   2753.6453      297878.5       1011.639       297244.58      298780.53      297610.39      1217.6277     -470.52021     -2410.4054      5694.6295      3054.3718      8749.0013      154946.09      42.630152      42.630152      85.260304          16000 
    169000   2794.2774      298128.56      1018.0758      298631.66      297839.94      297914.09      1539.1186      1358.2844     -3279.6955      5778.6581      2998.5724      8777.2305      154977.19      42.633003      42.633003      85.266006          16000 
    170000   2772.6184      308857.22      1024.5134      307677.5       309087.95      309806.2       1410.7858     -110.22522     -559.40853      5733.8665      3089.1675      8823.034       154368.9       42.577152      42.577152      85.154304          16000 
    171000   2762.7602      297752.21      1030.9469      297695.61      297270.33      298290.68     -208.35847     -257.20578     -2440.2151      5713.4794      3110.6672      8824.1467      155021.19      42.637038      42.637038      85.274076          16000 
    172000   2745.104       298583.86      1037.378       298507.79      298946.85      298296.94      647.33178     -1480.9341     -1551.9897      5676.9658      2997.1488      8674.1147      154903.81      42.626274      42.626274      85.252547          16000 
    173000   2817.2793      300368.25      1043.8077      299933.34      300329.87      300841.54      1112.219       2569.8331     -1768.9371      5826.2267      3032.0024      8858.2291      154860.44      42.622295      42.622295      85.244591          16000 
    174000   2800.8985      298858.85      1050.2396      297324.89      299997.55      299254.12     -640.21195     -1348.5269      2239.2985      5792.3508      2958.7579      8751.1087      154970.59      42.632398      42.632398      85.264797          16000 
    175000   2828.9838      298861.2       1056.6711      298393.7       298416.11      299773.81     -340.05077      1589.3724      620.04921      5850.432       2997.6692      8848.1012      155000.03      42.635098      42.635098      85.270196          16000 
    176000   2803.0521      304590.61      1063.1034      303603.98      306375.34      303792.51     -842.78704      867.12494     -2539.6277      5796.8043      3098.9633      8895.7676      154666.11      42.604459      42.604459      85.208918          16000 
    177000   2798.8849      296464.75      1069.5321      297227.9       297115.65      295050.69      408.89536     -173.23376      2372.6386      5788.1866      3020.1187      8808.3053      155059.77      42.640574      42.640574      85.281148          16000 
    178000   2833.357       298866.9       1075.9626      297980.61      299692.06      298928.02     -121.13711      1053.9952     -3294.3497      5859.476       2996.36        8855.836       154988.21      42.634014      42.634014      85.268027          16000 
    179000   2788.3594      300769.99      1082.3926      299822.92      301641.28      300845.79     -28.461103     -868.39389      1443.9386      5766.4194      3012.6229      8779.0423      154803.42      42.617063      42.617063      85.234126          16000 
    180000   2842.1531      299645.76      1088.8235      300323.97      299489.72      299123.6      -810.32206      507.88323     -817.45548      5877.6665      3010.5202      8888.1867      154902.12      42.626118      42.626118      85.252237          16000 
    181000   2821.5932      301499.82      1095.2556      302146.88      300668.86      301683.72      1668.2948      1253.4493      163.58658      5835.148       3022.0421      8857.1901      154815.46      42.618168      42.618168      85.236336          16000 
    182000   2792.5144      296884.96      1101.6885      297858.46      297783.78      295012.63      742.55447      1989.0914      1099.1171      5775.0121      3022.8133      8797.8254      155051.13      42.639783      42.639783      85.279565          16000 
    183000   2760.6965      302042.09      1108.1188      301023.79      303651.47      301451.01      4142.9192     -2924.535      -1499.2542      5709.2117      2998.3031      8707.5149      154708.53      42.608353      42.608353      85.216707          16000 
    184000   2788.0314      302715.44      1114.5511      302510.9       302751.36      302884.07     -589.13661     -3361.0465     -416.37035      5765.741       3102.8089      8868.55        154732.17      42.610524      42.610524      85.221048          16000 
    185000   2803.9518      294208.68      1120.9792      295597.39      293333.79      293694.86     -228.1094       2164.0722      1116.3989      5798.665       2986.194       8784.859       155168.15      42.650507      42.650507      85.301013          16000 
    186000   2797.012       302341.84      1127.4101      302649.41      302536.8       301839.3       239.49688     -41.968746      188.4877       5784.3132      3080.8614      8865.1747      154708.3       42.608333      42.608333      85.216666          16000 
    187000   2813.7567      302515.5       1133.8424      302114.96      303467.03      301964.53      260.05556     -707.68481     -1207.5973      5818.9419      2988.9175      8807.8594      154728.42      42.61018       42.61018       85.22036           16000 
    188000   2823.925       297580.85      1140.2753      298352.42      297040.53      297349.59      1852.8338     -662.01934      1538.1645      5839.9703      3046.5838      8886.5541      155060.38      42.64063       42.64063       85.281261          16000 
    189000   2779.7989      301596.92      1146.7098      300993.99      302212.73      301584.05      908.40596      914.51377     -534.85739      5748.716       3074.5147      8823.2308      154752.51      42.612391      42.612391      85.224781          16000 
    190000   2805.8799      298500.37      1153.1389      299120.93      298542.37      297837.82     -140.60553     -566.64201     -864.46035      5802.6524      3067.4816      8870.134       154967.46      42.632111      42.632111      85.264222          16000 
    191000   2804.2956      298893.4       1159.5709      297902.91      300444.41      298332.89      2006.9077     -549.98695     -1141.8454      5799.376       3048.6192      8847.9952      154963.4       42.631739      42.631739      85.263477          16000 
    192000   2794.9521      301646.39      1166.0041      302273.43      302290.62      300375.12      3272.6932      799.00324     -152.81369      5780.0533      3086.282       8866.3353      154775.1       42.614464      42.614464      85.228928          16000 
    193000   2772.536       301219.79      1172.4384      300960.25      302555.19      300143.94     -238.67871     -194.21818     -1142.8318      5733.696       3026.834       8760.53        154797.02      42.616476      42.616476      85.232953          16000 
    194000   2812.2236      294321.21      1178.8692      293391.22      294728.07      294844.33     -1615.9434      833.79141     -478.28107      5815.7714      2999.5705      8815.3418      155197.77      42.65322       42.65322       85.306441          16000 
    195000   2813.069       301796.92      1185.3016      302120.12      301522.62      301748.01     -143.79587     -1071.2494      1579.1227      5817.5197      3025.6262      8843.1459      154755.28      42.612646      42.612646      85.225291          16000 
    196000   2815.5317      300607.61      1191.7325      301278.54      299182.03      301362.24      2002.5958      1831.4433      1249.4727      5822.6126      3007.0203      8829.6328      154861.42      42.622384      42.622384      85.244769          16000 
    197000   2806.3508      297018.07      1198.1624      296768.51      297305.83      296979.86      3343.3254     -427.98437     -530.78239      5803.6262      3048.9073      8852.5335      155054.15      42.640059      42.640059      85.280119          16000 
    198000   2819.1643      306432.86      1204.5943      306786.76      305749.07      306762.74      1823.6626     -120.71877     -720.41262      5830.125       3018.1944      8848.3194      154576.69      42.596247      42.596247      85.192494          16000 
    199000   2757.826       296682.71      1211.0269      298189.88      295285.56      296572.71     -192.69165      318.89816     -1782.3482      5703.2753      2981.4904      8684.7657      155050.64      42.639738      42.639738      85.279476          16000 
    200000   2770.88        300280.98      1217.4636      300384.47      301256.5       299201.96      447.53547      1058.572      -2534.4797      5730.2714      3057.3538      8787.6252      154874.32      42.623568      42.623568      85.247136          16000 
    201000   2814.0798      302436.94      1223.8921      301317.79      304156.12      301836.92     -612.23198     -2018.7026     -419.6949       5819.61        3140.7395      8960.3495      154793.47      42.61615       42.61615       85.2323            16000 
    202000   2821.6995      298010.33      1230.3204      297780.59      298581.07      297669.31      596.7662       2060.5771      220.76068      5835.3678      2974.8798      8810.2475      154942.41      42.629814      42.629814      85.259628          16000 
    203000   2789.3656      300675.75      1236.751       299967.04      300557.08      301503.13      324.53682      1592.4697     -1783.5757      5768.5004      3033.9454      8802.4458      154825.69      42.619107      42.619107      85.238214          16000 
    204000   2811.0099      301576.92      1243.1835      300476.1       301619.79      302634.86      1840.7769     -494.31457     -440.76982      5813.2613      2993.1287      8806.39        154833.13      42.619789      42.619789      85.239578          16000 
    205000   2792.0589      296829.45      1249.6139      297080.31      296783.21      296624.84     -285.77607      1691.9528      1383.1125      5774.0701      3022.9048      8796.9749      155067.51      42.641284      42.641284      85.282568          16000 
    206000   2795.4153      302231.5       1256.0439      302292.48      301691.01      302711         306.41448      665.06662     -97.77964       5781.0113      3076.1206      8857.132       154782.53      42.615146      42.615146      85.230291          16000 
    207000   2836.0382      303043.84      1262.4749      301692.69      303036.34      304402.5      -491.44599     -119.07447     -846.85534      5865.0207      3061.8302      8926.8509      154832.21      42.619705      42.619705      85.239411          16000 
    208000   2806.8783      296707.93      1268.9056      297257.85      295874.24      296991.7      -278.40903     -2574.658      -685.25863      5804.7171      2999.8923      8804.6094      155105.12      42.644731      42.644731      85.289463          16000 
    209000   2783.3602      303097.33      1275.3356      304157.22      301994.23      303140.53     -198.58919     -1742.1531     -1855.5184      5756.0809      2985.7394      8741.8202      154704.95      42.608025      42.608025      85.21605           16000 
    210000   2807.2711      299710.8       1281.7659      300844.45      298585.31      299702.65      748.03561     -792.72495     -1749.1651      5805.5294      3051.5211      8857.0505      154925.12      42.628228      42.628228      85.256456          16000 
    211000   2806.5981      296857.63      1288.1949      296044.34      297432.8       297095.75      137.52374     -2721.5277      1898.4834      5804.1376      2981.6592      8785.7968      155078.85      42.642324      42.642324      85.284647          16000 
    212000   2783.8897      305347.11      1294.6256      305635.36      305295.52      305110.44      847.12799     -1529.9157     -1212.0519      5757.1759      3137.5183      8894.6942      154590.77      42.59754       42.59754       85.195081          16000 
    213000   2799.504       297667.77      1301.0555      296830.37      297734.25      298438.68     -2562.7029      860.89153      854.79975      5789.4667      2988.8093      8778.276       154988.14      42.634007      42.634007      85.268014          16000 
    214000   2830.5443      297711.99      1307.4872      298054.31      298436.68      296644.97      503.40051      1631.3124      2666.2915      5853.6592      2985.2836      8838.9428      155000.84      42.635172      42.635172      85.270344          16000 
    215000   2766.8149      304242.15      1313.9144      304080.76      305209.89      303435.79     -316.1245       810.35358     -693.33816      5721.8647      3044.4321      8766.2969      154611.13      42.59941       42.59941       85.198821          16000 
    216000   2799.9318      297321.71      1320.3419      297823.45      297138.98      297002.68      665.09761      985.16643     -926.59442      5790.3515      3052.0143      8842.3658      154967.18      42.632086      42.632086      85.264171          16000 
    217000   2799.6783      299765.72      1326.775       298668.97      299208.26      301419.93     -560.41046     -1425.249      -97.723087      5789.8272      2990.3469      8780.1741      154921.59      42.627905      42.627905      85.255809          16000 
    218000   2780.2058      303724.56      1333.1925      304685.88      302824.21      303663.58     -2018.3299     -2171.7038      636.18553      5749.5575      3122.8365      8872.394       154672.93      42.605085      42.605085      85.21017           16000 
    219000   2797.9982      297626.21      1339.6214      296140.59      298811.44      297926.59      2172.6484     -630.25306     -115.99187      5786.3527      2979.8976      8766.2504      154945.96      42.630139      42.630139      85.260278          16000 
    220000   2801.4256      297864.51      1346.0461      299081.38      297253.34      297258.81      453.51319      1106.348       3646.627       5793.4408      2988.334       8781.7748      154969.25      42.632276      42.632276      85.264551          16000 
    221000   2801.3952      302097.75      1352.4722      302378.05      302291.62      301623.58      1238.9977     -483.5104      -408.8989       5793.378       3079.5525      8872.9305      154758.85      42.612973      42.612973      85.225946          16000 
    222000   2819.0247      299034.16      1358.9017      298731.93      298752.93      299617.64     -2855.791      -603.03238      662.42171      5829.8363      3026.1303      8855.9666      154973.4       42.632656      42.632656      85.265312          16000 
    223000   2796.1932      299529.77      1365.3326      299433.36      298955.71      300200.24      2040.8336      762.16827     -1662.1012      5782.62        3011.6312      8794.2511      154918.21      42.627594      42.627594      85.255188          16000 
    224000   2804.9036      299200.83      1371.76        299132.31      299030.82      299439.37     -456.45694      1838.312       686.68019      5800.6333      3044.9113      8845.5445      154893.26      42.625306      42.625306      85.250612          16000 
    225000   2781.9048      299085.83      1378.1887      298410.75      299721.24      299125.5      -1260.9197      859.34232      224.36065      5753.0711      2971.0707      8724.1418      154899.4       42.625869      42.625869      85.251738          16000 
    226000   2803.2462      298039.83      1384.6174      298266.68      298279.04      297573.77     -1337.039      -2002.5093      513.75394      5797.2059      3045.3624      8842.5683      155014.75      42.636447      42.636447      85.272894          16000 
    227000   2795.3204      301177.84      1391.0432      301912.79      301027.52      300593.21     -1043.9874      3526.9574      570.07372      5780.8149      3056.4142      8837.2292      154851.53      42.621478      42.621478      85.242955          16000 
    228000   2764.7905      300762.92      1397.4713      301245.69      299066.81      301976.25     -25.609096      461.31876      963.71375      5717.6783      3005.5509      8723.2292      154784.71      42.615347      42.615347      85.230693          16000 
    229000   2812.4012      300087.16      1403.8992      299267.34      300038.16      300955.99     -1012.4301     -2888.8317      59.780404      5816.1386      3020.1146      8836.2532      154842.3       42.620631      42.620631      85.241261          16000 
    230000   2798.5331      302950.12      1410.3251      303443.26      302609.96      302797.13      780.39895      3090.328      -871.39066      5787.459       3020.8709      8808.3298      154709.88      42.608477      42.608477      85.216955          16000 
    231000   2767.8304      296823.69      1416.7573      297632.81      296876.84      295961.43     -1032.6933      2713.5768     -1188.8061      5723.9648      3006.8363      8730.801       155036.64      42.638454      42.638454      85.276908          16000 
    232000   2811.0254      300498.11      1423.1875      301577.28      300025.26      299891.77     -414.74919      2328.918       1459.7444      5813.2934      3053.3494      8866.6429      154903.24      42.626221      42.626221      85.252443          16000 
    233000   2763.4038      302179.68      1429.6146      303141.5       301110.82      302286.71      1084.6273     -1096.9517     -1247.9594      5714.8105      3081.5432      8796.3537      154757.19      42.612821      42.612821      85.225641          16000 
    234000   2826.1608      298643.73      1436.042       298448.68      298576.95      298905.56     -1614.4101      808.03718      165.22588      5844.594       2960.3977      8804.9917      154958.51      42.63129       42.63129       85.262581          16000 
    235000   2789.3548      298267.07      1442.4737      297949         297965.37      298886.84      1259.8892      7.600195       943.75329      5768.478       3041.1573      8809.6353      154985.17      42.633735      42.633735      85.26747           16000 
    236000   2796.2215      300536.73      1448.8996      300689.14      300143.5       300777.55     -571.82731      1521.3735     -2319.1839      5782.6786      2969.4895      8752.168       154781.54      42.615055      42.615055      85.230111          16000 
    237000   2821.9714      301568.4       1455.3431      301296.7       300748.91      302659.58     -496.475       -589.97968     -862.03825      5835.9301      2995.269       8831.1991      154750.82      42.612236      42.612236      85.224472          16000 
    238000   2811.6382      295367.24      1461.6907      294915.93      296609.07      294576.73      75.596115      1160.3463     -315.25312      5814.5608      3049.3083      8863.869       155197.22      42.65317       42.65317       85.306339          16000 
    239000   2810.1943      302105.91      1468.0394      301342.57      302534.52      302440.64      304.10198     -2171.3144     -110.84045      5811.5747      3024.7194      8836.2941      154790.86      42.615911      42.615911      85.231821          16000 
    240000   2809.2857      301295.17      1474.389       300672.01      301255.4       301958.09     -706.87497      622.1792       236.03005      5809.6957      3030.9744      8840.6701      154802.6       42.616988      42.616988      85.233976          16000 
    241000   2813.9379      296950.01      1480.7304      297026.51      296431.47      297392.04      1597.658       470.4148      -80.240541      5819.3166      2973.06        8792.3766      155035.94      42.63839       42.63839       85.27678           16000 
    242000   2798.3159      304375.95      1487.0742      303797.35      304681.06      304649.44     -3211.2084      3032.6368      540.92801      5787.0097      3116.4443      8903.454       154655.21      42.603458      42.603458      85.206916          16000 
    243000   2830.8849      300509.83      1493.4211      300739.35      299725.43      301064.7      -328.13453     -1131.5992     -911.71508      5854.3636      2984.3449      8838.7085      154879.63      42.624056      42.624056      85.248111          16000 
    244000   2802.2237      298390.67      1499.7636      297641.91      298781.8       298748.29     -475.69241      3116.2479     -1106.8096      5795.0912      2972.685       8767.7761      155024.47      42.637338      42.637338      85.274677          16000 
    245000   2778.5042      302222.06      1506.11        300672.38      302560.44      303433.37      1893.1555      81.002166     -2281.8281      5746.0386      3126.6542      8872.6928      154832.03      42.619689      42.619689      85.239378          16000 
    246000   2811.5084      298556.42      1512.4528      299495.68      297971.8       298201.78     -1792.7047      1865.2227      1248.892       5814.2922      2984.5425      8798.8347      155007.98      42.635826      42.635826      85.271652          16000 
    247000   2818.7584      300887.39      1518.7938      301161.1       299904.03      301597.05     -1214.1404     -3226.1175     -2516.1745      5829.2855      3039.4738      8868.7592      154899.86      42.625911      42.625911      85.251823          16000 
    248000   2784.5355      299008.39      1525.1393      297520.5       299554.98      299949.7       1005.5244      1006.5756      427.85491      5758.5114      3070.245       8828.7564      154901.23      42.626037      42.626037      85.252073          16000 
    249000   2784.7896      299827.95      1531.4849      300042.24      299229.9       300211.72      589.98151     -1210.5961      1798.4356      5759.0369      3077.5815      8836.6185      154911.5       42.626979      42.626979      85.253958          16000 
    250000   2773.2532      299061.86      1537.8328      299288.73      298899.21      298997.63      763.73263      1298.4843     -1166.4215      5735.1793      3055.6786      8790.8579      154899.19      42.62585       42.62585       85.2517            16000 
    251000   2823.3757      299718.56      1544.1812      299292.51      299328.39      300534.79     -810.70787     -125.27321      1781.3278      5838.8343      3039.014       8877.8482      154883.45      42.624406      42.624406      85.248812          16000 
    252000   2780.2269      298860.47      1550.5252      299513.78      299248.64      297818.98      193.76813      90.889917      1389.9968      5749.6011      3089.2185      8838.8196      154896.61      42.625613      42.625613      85.251226          16000 
    253000   2818.6953      298487.72      1556.8734      300100.05      298060.82      297302.29     -1058.9287     -3058.3341     -527.60185      5829.155       3064.1975      8893.3525      154991.28      42.634295      42.634295      85.268591          16000 
    254000   2779.7417      302675.19      1563.2206      304123.64      301992.08      301909.84      1654.6536      927.35343      2257.8076      5748.5977      3085.3514      8833.9492      154742.08      42.611433      42.611433      85.222867          16000 
    255000   2785.1796      299138.78      1569.5662      299928.44      298825.88      298662.03      318.28484      1994.1596      2968.3556      5759.8435      3057.5905      8817.434       154969.06      42.632258      42.632258      85.264516          16000 
    256000   2829.5225      297142.03      1575.9128      296122.06      298458.79      296845.25     -2746.734      -2327.4532      1221.507       5851.5462      2897.0261      8748.5722      155033.47      42.638163      42.638163      85.276326          16000 
    257000   2805.276       302689.4       1582.256       303027.37      302700.96      302339.88      863.21263     -244.49949     -751.36346      5801.4035      3095.4793      8896.8828      154722.2       42.609609      42.609609      85.219217          16000 
    258000   2775.8317      299713.6       1588.6018      298476.37      299004.42      301660.01     -1787.8353      2282.9328      322.96348      5740.5117      3047.8536      8788.3653      154847.85      42.62114       42.62114       85.242281          16000 
    259000   2787.4842      296515.99      1594.9491      296569.9       297076.17      295901.9       266.69633      918.0271      -1027.7068      5764.6095      2999.4936      8764.1031      155041.96      42.638942      42.638942      85.277884          16000 
    260000   2836.406       304705.46      1601.2975      304204.16      305681.34      304230.88     -1385.5178      458.66533      629.82669      5865.7814      3065.2528      8931.0342      154639.69      42.602033      42.602033      85.204066          16000 
    261000   2796.8428      298864.31      1607.6439      298194.95      299811.94      298586.03      1118.2173     -885.11309     -514.9327       5783.9634      3041.0527      8825.0161      154906.22      42.626494      42.626494      85.252989          16000 
    262000   2787.3399      297010.82      1614.0089      296460.29      297006.56      297565.62      507.51526      714.39829      3339.5766      5764.3111      3092.0463      8856.3575      155091.87      42.643516      42.643516      85.287033          16000 
    263000   2795.3153      302366.82      1620.3803      302089.81      303159.39      301851.28     -1228.7151     -176.1659      -76.875166      5780.8045      3045.266       8826.0705      154758.63      42.612953      42.612953      85.225906          16000 
    264000   2805.7825      298249.97      1626.7537      297083.18      299231.05      298435.67      3276.3023     -556.13172      1810.217       5802.4509      3001.4125      8803.8634      154946.88      42.630224      42.630224      85.260447          16000 
    265000   2837.0202      299608.81      1633.119       297975.4       300529         300322.03      2470.5613     -2788.6879      395.97576      5867.0516      3041.9136      8908.9651      154988.93      42.63408       42.63408       85.26816           16000 
    266000   2816.1964      303217.31      1639.489       301774.91      304070.17      303806.86     -527.38606      1279.5515      1681.1657      5823.9873      2999.8594      8823.8467      154737.7       42.611032      42.611032      85.222064          16000 
    267000   2812.287       298189.4       1645.8573      298200.09      297734.03      298634.09     -1237.3397     -477.322        571.6536       5815.9025      3050.7475      8866.65        155033.96      42.638209      42.638209      85.276418          16000 
    268000   2812.2784      295857.89      1652.2178      295389.08      296510.87      295673.72     -602.52489     -1937.6868      610.94528      5815.8847      2946.5263      8762.411       155130.13      42.647023      42.647023      85.294047          16000 
    269000   2815.7462      301812.29      1658.5975      301971.16      301952.48      301513.22      2102.3563     -84.564672      531.01841      5823.0563      3072.1444      8895.2006      154813.66      42.618002      42.618002      85.236005          16000 
    270000   2795.5994      298342.96      1664.9579      299762.51      296639.37      298626.99     -437.6836      -760.66268      486.16693      5781.392       3004.0167      8785.4088      154982.23      42.633466      42.633466      85.266931          16000 
    271000   2824.8684      298494.32      1671.3197      298134.1       298969.8       298379.08     -364.81994      1927.1269     -392.42773      5841.9212      3092.8993      8934.8205      155027.23      42.637592      42.637592      85.275183          16000 
    272000   2798.7232      302629.05      1677.6827      303262.2       302353.7       302271.26     -2867.5985      986.097        140.45008      5787.852       3018.6835      8806.5356      154727.21      42.610068      42.610068      85.220136          16000 
    273000   2808.0162      298668.52      1684.0438      298420.88      299530.34      298054.34     -183.94741     -3379.1426     -784.57288      5807.0703      2980.7046      8787.7749      154939.62      42.629558      42.629558      85.259117          16000 
    274000   2813.009       297377.31      1690.4034      299062.21      296513.95      296555.76     -1205.2237     -1347.3923     -2282.6567      5817.3955      2912.0884      8729.484       154972.67      42.632589      42.632589      85.265178          16000 
    275000   2817.4347      303610.78      1696.7649      302638.01      303241.33      304953        -228.56284      3016.9487      1806.2103      5826.5481      3074.456       8901.0041      154722.68      42.609653      42.609653      85.219305          16000 
    276000   2771.5237      298623.19      1703.1273      297511.38      300503.63      297854.55     -1273.9468     -1008.6913     -1597.4435      5731.6026      3046.8866      8778.4893      154956.29      42.631087      42.631087      85.262173          16000 
    277000   2786.6578      297906.98      1709.4891      299479.99      297782.32      296458.63      2294.8845      2401.5043     -165.08758      5762.9004      3071.0052      8833.9056      155037.97      42.638576      42.638576      85.277152          16000 
    278000   2839.0622      301296.46      1715.8503      303126.23      300543.2       300219.94      1663.626      -257.24119     -363.92098      5871.2745      3062.4797      8933.7543      154810.23      42.617688      42.617688      85.235377          16000 
    279000   2803.7501      298568.61      1722.2111      298659.11      299684.02      297362.71      931.70298      358.59993     -68.536277      5798.2479      2989.3352      8787.5831      154930.11      42.628686      42.628686      85.257371          16000 
    280000   2833.6075      299974.03      1728.5745      299796.34      301504.72      298621.04     -284.66062      2154.454      -802.88348      5859.994       3034.6879      8894.6819      154955.24      42.63099       42.63099       85.261981          16000 
    281000   2805.1934      300481.91      1734.9357      299844.2       299759.78      301841.76      208.19198     -650.43334      443.65469      5801.2327      3027.7534      8828.9861      154837.74      42.620212      42.620212      85.240425          16000 
    282000   2800.6812      299213.89      1741.2962      300134.08      298686.14      298821.44      3455.8703      4641.0215      1025.2901      5791.9014      3005.8915      8797.7929      154923.97      42.628123      42.628123      85.256246          16000 
    283000   2811.9042      295463.2       1747.6596      294923.77      295744.4       295721.43      1507.9378     -908.11208      230.01853      5815.1108      2969.9353      8785.046       155180.12      42.651603      42.651603      85.303207          16000 
    284000   2808.0281      302827.82      1754.0179      302425.57      303681.55      302376.35     -403.83286     -621.34231      13.120489      5807.0949      3036.3367      8843.4316      154736.72      42.610942      42.610942      85.221884          16000 
    285000   2818.7889      299647.8       1760.3802      298997.45      300500.13      299445.84     -112.69931     -135.6227      -1008.5416      5829.3486      3080.2883      8909.6369      154905.63      42.626441      42.626441      85.252882          16000 
[...]
   3930000   2705.9074      299323.68      6658.7395      298760.22      300494.89      298715.93     -1996.4236     -1143.453      -65.649784      5595.9059      3826.2045      9422.1104      155090.65      42.64087       42.64087       85.296949          16000 
   3931000   2760.2607      299712.61      6665.9096      300992.03      299512.41      298633.38      1158.8424      342.58155     -2923.7375      5708.3103      3727.4169      9435.7272      155017.26      42.634144      42.634144      85.283493          16000 
   3932000   2744.686       297764.88      6673.0801      299290.87      296454.59      297549.17      1221.3505      1532.9473     -60.527958      5676.1013      3721.4481      9397.5494      155221.87      42.652893      42.652893      85.320999          16000 
   3933000   2763.1209      302642.01      6680.2534      302726.39      303564.06      301635.58      1076.1938      1512.0305      63.77136       5714.2253      3741.1375      9455.3628      154908.83      42.6242        42.6242        85.263603          16000 
   3934000   2742.1984      303021.92      6687.4208      303096.01      303112.77      302856.97     -606.95013      89.258233     -584.118        5670.9569      3794.5289      9465.4858      154856.26      42.619378      42.619378      85.253957          16000 
   3935000   2751.2516      297870.14      6694.5875      297297.3       298613.16      297699.97     -485.75215     -2629.4809      6.2630551      5689.6793      3717.3907      9407.07        155166.04      42.647779      42.647779      85.310768          16000 
   3936000   2758.8725      299657.94      6701.7587      299221.3       299309.16      300443.35     -2103.33       -1993.6578     -1550.6056      5705.4395      3721.0984      9426.5378      155056.45      42.637736      42.637736      85.290679          16000 
   3937000   2723.5911      302167.32      6708.9295      301333.26      303023.67      302145.04     -2108.745      -826.32306      240.85469      5632.4765      3809.8437      9442.3201      154970.65      42.62987       42.62987       85.274944          16000 
   3938000   2765.3364      299421.76      6716.0987      298967.62      300140.71      299156.96     -3427.082       2206.9825     -473.57511      5718.8071      3689.6023      9408.4094      155149.44      42.646258      42.646258      85.307726          16000 
   3939000   2725.087       295294.54      6723.2688      295785.4       293647.1       296451.13     -1367.3812     -604.34464     -3435.0207      5635.57        3730.5731      9366.1431      155372.77      42.666711      42.666711      85.348638          16000 
   3940000   2754.3095      301313.52      6730.4338      301331.26      300706.1       301903.19     -31.62119      -768.16592      933.98998      5696.0031      3741.8719      9437.8749      154983.51      42.631049      42.631049      85.277302          16000 
   3941000   2746.3712      300989.95      6737.6041      301617.09      299595.6       301757.16      558.95112      196.23803      272.16547      5679.5864      3743.5966      9423.183       155059.1       42.637979      42.637979      85.291164          16000 
   3942000   2734.9288      296506.8       6744.7711      296291.76      297594.67      295633.98     -638.52469     -473.14174     -967.94166      5655.9232      3730.7527      9386.6759      155249.02      42.65538       42.65538       85.325972          16000 
   3943000   2743.583       303199.53      6751.9367      302772.99      303129.51      303696.09     -1064.34        5116.7103     -42.569825      5673.8204      3774.3959      9448.2163      154917.92      42.625034      42.625034      85.265271          16000 
   3944000   2738.2237      305007.64      6759.1019      305066.07      305113.97      304842.88     -3540.4596     -1837.0715     -1321.6882      5662.7372      3814.2815      9477.0187      154765.89      42.611087      42.611087      85.237371          16000 
   3945000   2738.4794      300435.28      6766.2693      299036.56      301078.93      301190.34      252.43973      2078.3127     -3219.0806      5663.266       3761.5336      9424.7997      155041.64      42.636378      42.636378      85.287963          16000 
   3946000   2751.5362      299312.58      6773.4361      298572.28      299874.14      299491.31      2058.8002      1265.1743      1137.8844      5690.2679      3719.1837      9409.4516      155119.49      42.643513      42.643513      85.302235          16000 
   3947000   2751.8381      301703.85      6780.6022      301434.63      300726.18      302950.75     -670.2957       843.84306      407.91555      5690.8921      3762.8505      9453.7426      154880.12      42.621567      42.621567      85.258336          16000 
   3948000   2731.4283      301921.4       6787.7722      300448         302070.52      303245.68      2268.0041      809.73444     -2125.4005      5648.684       3781.8151      9430.4991      155003.07      42.632842      42.632842      85.28089           16000 
   3949000   2726.9732      292501.94      6794.9384      291528.63      292590         293387.2       714.83418     -2667.8466      302.72203      5639.4707      3708.9103      9348.381       155445         42.673321      42.673321      85.361861          16000 
   3950000   2740.4414      299205.93      6802.1057      299963.39      298692.39      298962         2080.9583      1294.4856     -738.64455      5667.3234      3752.4979      9419.8213      155057.1       42.637795      42.637795      85.290798          16000 
   3951000   2768.1815      301168.6       6809.2703      300169.97      300116.36      303219.48     -419.37892     -3488.9172      932.17457      5724.6908      3718.7437      9443.4345      154930.63      42.6262        42.6262        85.267603          16000 
   3952000   2748.6657      297949.18      6816.4341      298061.44      298991.2       296794.9       3249.7737     -4004.1203     -6068.8713      5684.3314      3722.5137      9406.8452      155117.7       42.643349      42.643349      85.301907          16000 
   3953000   2732.3966      296935.65      6823.6         297817.16      297924         295065.78     -834.49834     -322.31608     -372.09428      5650.6864      3756.379       9407.0655      155115.51      42.643148      42.643148      85.301506          16000 
   3954000   2721.6972      302138.41      6830.7662      301155.24      304167.63      301092.37     -1650.3263      701.12726      2567.7344      5628.5598      3822.04        9450.5997      154883.21      42.62185       42.62185       85.258902          16000 
   3955000   2729.3453      299667.33      6837.9346      301087.33      298854.22      299060.43     -153.97186     -897.02652     -13.340994      5644.3764      3775.4769      9419.8533      155046.6       42.636833      42.636833      85.288873          16000 
   3956000   2743.3152      297880.17      6845.1022      298209.86      298007.93      297422.73      1916.7917     -2373.8613     -2941.9262      5673.2666      3733.7329      9406.9995      155112.6       42.642882      42.642882      85.300973          16000 
   3957000   2742.062       303317.74      6852.2639      303396.71      302101.32      304455.17      3271.7723     -16.129429      591.14794      5670.6748      3778.8403      9449.5151      154881.66      42.621708      42.621708      85.258618          16000 
   3958000   2723.9114      298902.33      6859.4251      298305.9       298234.27      300166.82      388.23429     -3987.1445      217.60478      5633.1389      3776.7675      9409.9063      155092.88      42.641075      42.641075      85.297358          16000 
   3959000   2726.6617      296457.77      6866.5845      297057.66      296463.41      295852.23      151.59477     -1622.0452     -1319.6593      5638.8266      3748.8737      9387.7003      155210.57      42.651858      42.651858      85.318928          16000 
   3960000   2769.5262      304088.54      6873.7447      302908.19      303653.63      305703.81      2693.1658     -1767.0576      976.94229      5727.4716      3748.8504      9476.3221      154735.58      42.608305      42.608305      85.231806          16000 
   3961000   2738.365       301854.42      6880.9069      302226.82      301736.59      301599.84      1861.2803     -1659.4524     -518.80643      5663.0293      3764.7037      9427.733       154993.15      42.631933      42.631933      85.279071          16000 
   3962000   2740.4541      297084.4       6888.0639      296606.28      296342.62      298304.29     -3804.1569     -2038.1877     -2412.335       5667.3497      3714.4716      9381.8214      155236.07      42.654193      42.654193      85.3236            16000 
   3963000   2756.3671      299158.01      6895.2186      298972.75      298528.57      299972.69      2281.2665     -1125.0663     -1701.6285      5700.2584      3720.8316      9421.0899      155024.87      42.634841      42.634841      85.284887          16000 
   3964000   2777.9179      301918.14      6902.3752      299637.32      302856.19      303260.91     -4158.853       2079.6805      171.851        5744.826       3692.1031      9436.9291      154938.58      42.626929      42.626929      85.26906           16000 
   3965000   2729.8267      299671.12      6909.5325      298585.25      300095.38      300332.72      132.74474     -1824.6698     -277.30328      5645.3718      3768.2658      9413.6375      155059.68      42.638032      42.638032      85.291272          16000 
   3966000   2721.3416      299027.06      6916.6889      299192.38      297952.03      299936.76     -2516.5903     -725.95298      994.64325      5627.8244      3774.9339      9402.7583      155114.68      42.643072      42.643072      85.301353          16000 
   3967000   2748.0266      302156.47      6923.8455      301642.12      303358.76      301468.54     -106.46691     -1030.8343      540.92366      5683.0099      3741.9061      9424.916       154993.98      42.632009      42.632009      85.279222          16000 
   3968000   2755.1077      297568.86      6931.0009      296155.2       298785.83      297765.54     -1788.4782     -818.14912     -2121.1879      5697.6539      3689.8405      9387.4944      155191.82      42.650141      42.650141      85.315493          16000 
   3969000   2752.2535      296535.52      6938.1579      296526.66      296015.03      297064.88     -499.79489     -1252.0327      568.96623      5691.7512      3688.2933      9380.0445      155229.97      42.653635      42.653635      85.322483          16000 
   3970000   2721.5216      303125.02      6945.3143      302932.32      302671.96      303770.77     -2053.974      -2714.0655      2209.3512      5628.1967      3818.608       9446.8046      154870.55      42.620689      42.620689      85.256579          16000 
   3971000   2747.6119      300473.71      6952.4718      300808.24      301484.14      299128.74      467.90176      239.57346     -1837.0791      5682.1523      3739.1084      9421.2607      155004.17      42.632943      42.632943      85.281091          16000 
   3972000   2732.2676      298999.64      6959.6292      299104.75      299034.97      298859.21     -1401.8076     -34.99248      -1033.8747      5650.4197      3753.6166      9404.0363      155095.22      42.641289      42.641289      85.297786          16000 
   3973000   2736.775       298064.41      6966.7934      298242.57      296067.16      299883.49      162.78502      1143.7288      917.84575      5659.7412      3740.5545      9400.2957      155114.38      42.643045      42.643045      85.3013            16000 
   3974000   2769.0167      310472.5       6973.9541      310357.28      310840.07      310220.14     -223.21973     -1982.0126     -572.72219      5726.4181      3784.5092      9510.9273      154530.75      42.589495      42.589495      85.19418           16000 
   3975000   2742.5447      300468.06      6981.1149      300163.65      299645.82      301594.7       280.67053     -3045.877       2157.4534      5671.6731      3735.2661      9406.9393      155071.97      42.639158      42.639158      85.293524          16000 
   3976000   2750.3003      294794.63      6988.2775      295056.16      294097.53      295230.2      -896.41722      1829.0166     -2008.1281      5687.712       3680.5741      9368.2861      155276.76      42.65792       42.65792       85.331055          16000 
   3977000   2753.819       300099.76      6995.4377      300788.28      300369.02      299141.97     -2263.1987     -567.50383     -1791.6691      5694.9887      3712.3988      9407.3874      155064.5       42.638473      42.638473      85.292154          16000 
   3978000   2761.1977      300456.27      7002.5975      300040.41      300185.51      301142.9       426.10523     -3671.663      -4400.8629      5710.2481      3701.8521      9412.1002      155038.67      42.636106      42.636106      85.287419          16000 
   3979000   2759.2235      298362.96      7009.7505      297899.83      299009.82      298179.23     -1041.7389     -100.08373      897.93656      5706.1654      3684.0007      9390.166       155153.09      42.646592      42.646592      85.308394          16000 
   3980000   2756.1916      298177.82      7016.9113      298298.23      297949.87      298285.37      797.83465     -986.91939     -2364.698       5699.8953      3704.6851      9404.5804      155074.8       42.639417      42.639417      85.294042          16000 
   3981000   2737.8367      305239.7       7024.0694      305248.33      304851.41      305619.37      771.27529      2406.7957     -2123.9352      5661.9369      3814.113       9476.0499      154693.91      42.604479      42.604479      85.224153          16000 
   3982000   2774.7327      297105.35      7031.2242      298504.56      296182.75      296628.74      709.43014     -2020.8938     -3459.6099      5738.239       3643.0945      9381.3335      155187.93      42.649784      42.649784      85.314779          16000 
   3983000   2727.0414      300319.22      7038.3775      299151.18      302234.54      299571.94      269.79428      3299.7192     -1665.6315      5639.6117      3757.8909      9397.5026      155096.5       42.641406      42.641406      85.298021          16000 
   3984000   2759.6942      302647.74      7045.5295      303001.52      302504.42      302437.3      -2583.2843     -492.7161      -159.80403      5707.1388      3713.7629      9420.9017      154971.89      42.629984      42.629984      85.275172          16000 
   3985000   2744.9047      297171.92      7052.6836      297188.29      297660.25      296667.23     -1244.4728     -488.53285     -139.15169      5676.5536      3702.1396      9378.6933      155196.1       42.650532      42.650532      85.316276          16000 
   3986000   2749.7972      298498.33      7059.8378      298243.11      297937.62      299314.26      376.81947      1318.243       27.545624      5686.6716      3705.727       9392.3986      155122.35      42.643775      42.643775      85.302759          16000 
   3987000   2765.9878      303590.53      7066.995       302724.82      302376.29      305670.49      1729.4102     -2299.2229     -126.5575       5720.1542      3719.2517      9439.4059      154866.41      42.620309      42.620309      85.255819          16000 
   3988000   2783.7754      299753.05      7074.1521      298032.39      301015.67      300211.11     -258.8521      -654.53104     -868.70335      5756.9397      3641.1356      9398.0753      155084.04      42.640265      42.640265      85.295737          16000 
   3989000   2741.6439      294223.47      7081.3091      295668.44      293449.5       293552.47      2468.353      -671.54322     -2364.962       5669.8102      3682.1607      9351.9709      155327.56      42.662571      42.662571      85.340358          16000 
   3990000   2731.9269      301798.46      7088.4645      302625.17      301490.64      301279.57      1955.5382      1088.122       141.58796      5649.7151      3772.747       9422.4621      154948.57      42.627845      42.627845      85.270894          16000 
   3991000   2728.4253      300661.75      7095.6234      300122.18      301084.35      300778.73      1340.1813      736.47045     -289.60369      5642.4738      3757.6354      9400.1091      155067.4       42.638739      42.638739      85.292686          16000 
   3992000   2754.0131      297435.65      7102.7799      296555.38      297881.49      297870.07      189.87641     -1421.3021     -1385.4022      5695.3901      3670.2949      9365.685       155250.37      42.655503      42.655503      85.32622           16000 
   3993000   2715.9688      301786.36      7109.937       301799.78      302151.08      301408.22      1130.008      -2765.0308     -1502.6918      5616.7134      3800.3306      9417.044       154974.13      42.630189      42.630189      85.275582          16000 
   3994000   2734.4768      302686.08      7117.0969      303541.96      300191.88      304324.4       1869.5001      2231.2266      1569.2664      5654.9884      3776.303       9431.2914      154894.71      42.622905      42.622905      85.261013          16000 
   3995000   2747.0601      296995.86      7124.2527      295570.68      297510.91      297905.99     -61.540053     -1196.6327      582.67365      5681.011       3684.5608      9365.5718      155247         42.655194      42.655194      85.325602          16000 
   3996000   2756.6678      300853.94      7131.4091      300785.72      299823.32      301952.78      1143.5495      407.74912      556.27008      5700.8801      3706.9279      9407.808       155018.65      42.634271      42.634271      85.283747          16000 
   3997000   2762.1513      302603.67      7138.5641      304192.83      303222.02      300396.17     -789.94943     -2724.1516     -927.83822      5712.2202      3731.5783      9443.7985      154824.96      42.616507      42.616507      85.248213          16000 
   3998000   2765.7431      299075.56      7145.7221      299794.1       298192.28      299240.29     -1401.4327      986.91301      1577.1417      5719.6482      3672.453       9392.1012      155094.54      42.641226      42.641226      85.297661          16000 
   3999000   2766.0616      297593.72      7152.8783      296846.41      298217.39      297717.36     -917.23113      2781.0312      36.05243       5720.3068      3662.5005      9382.8073      155143.41      42.645705      42.645705      85.306621          16000 
   4000000   2770.1281      303167.87      7160.0415      302790.98      303446.27      303266.35      1826.4436     -813.91597     -209.82278      5728.7164      3703.5641      9432.2805      154877.81      42.621355      42.621355      85.257911          16000 
Loop time of 7160.04 on 8 procs for 1000000 steps with 16000 atoms

Performance: 6.033 ns/day, 3.978 hours/ns, 139.664 timesteps/s
58.7% CPU use with 1 MPI tasks x 8 OpenMP threads

MPI task timing breakdown:
Section |  min time  |  avg time  |  max time  |%varavg| %total
---------------------------------------------------------------
Pair    | 6885.9     | 6885.9     | 6885.9     |   0.0 | 96.17
Neigh   | 7.3937     | 7.3937     | 7.3937     |   0.0 |  0.10
Comm    | 33.856     | 33.856     | 33.856     |   0.0 |  0.47
Output  | 1.4372     | 1.4372     | 1.4372     |   0.0 |  0.02
Modify  | 203.61     | 203.61     | 203.61     |   0.0 |  2.84
Other   |            | 27.82      |            |       |  0.39

Nlocal:          16000 ave       16000 max       16000 min
Histogram: 1 0 0 0 0 0 0 0 0 0
Nghost:          13608 ave       13608 max       13608 min
Histogram: 1 0 0 0 0 0 0 0 0 0
Neighs:              0 ave           0 max           0 min
Histogram: 1 0 0 0 0 0 0 0 0 0
FullNghs:  1.48113e+06 ave 1.48113e+06 max 1.48113e+06 min
Histogram: 1 0 0 0 0 0 0 0 0 0

Total # of neighbors = 1481128
Ave neighs/atom = 92.5705
Neighbor list builds = 22366
Dangerous builds = 0
Total wall time: 7:18:39
