
atom_style atomic
units metal
boundary p p p
#atom_modify sort 0 0.0
newton on

read_data data.lammps
Reading data file ...
  triclinic box = (0 0 0) to (4.3790145 4.3790145 4.3790145) with tilt (-0 0 0)
  1 by 1 by 1 MPI processor grid
  reading atoms ...
  8 atoms
  read_data CPU = 0.001 seconds
replicate 10 10 20
Replicating atoms ...
  triclinic box = (0 0 0) to (43.790145 43.790145 87.58029) with tilt (-0 0 0)
  1 by 1 by 1 MPI processor grid
  16000 atoms
  replicate CPU = 0.008 seconds

### interactions

pair_style flare
pair_coeff * * lmp.flare
Reading potential file lmp.flare with DATE: Thu

# compute unc all flare/std/atom L_inv_lmp.flare sparse_desc_lmp.flare
# compute MaxUnc all reduce max c_unc

mass 1 12.011000
mass 2 28.085000

thermo_style custom step temp press cpu pxx pyy pzz pxy pxz pyz ke pe etotal vol lx ly lz atoms    #c_MaxUnc
thermo 1000
timestep 0.0005
restart 100000 restart_*.dat

#################### Equilibrate at P and T_es ##############################
velocity all create $T 41928459 rot yes dist gaussian
velocity all create 3200 41928459 rot yes dist gaussian
fix mom all momentum 1000 linear 1 1 1 angular

fix 1 all npt temp $T $T $(100.0*dt) iso $P $P $(1000.0*dt)
fix 1 all npt temp 3200 $T $(100.0*dt) iso $P $P $(1000.0*dt)
fix 1 all npt temp 3200 3200 $(100.0*dt) iso $P $P $(1000.0*dt)
fix 1 all npt temp 3200 3200 0.050000000000000002776 iso $P $P $(1000.0*dt)
fix 1 all npt temp 3200 3200 0.050000000000000002776 iso 900000 $P $(1000.0*dt)
fix 1 all npt temp 3200 3200 0.050000000000000002776 iso 900000 900000 $(1000.0*dt)
fix 1 all npt temp 3200 3200 0.050000000000000002776 iso 900000 900000 0.5
dump 1 all custom 1000 1equil.bin id type x y z vx vy vz
run   10000 # report performance
Neighbor list info ...
  update every 1 steps, delay 10 steps, check yes
  max neighbors/atom: 2000, page size: 100000
  master list distance cutoff = 6
  ghost atom cutoff = 6
  binsize = 6, bins = 8 8 15
  1 neighbor lists, perpetual/occasional/extra = 1 0 0
  (1) pair flare/kk, perpetual
      attributes: full, newton on, kokkos_device
      pair build: full/bin/kk/device
      stencil: full/bin/3d
      bin: kk/device
Per MPI rank memory allocation (min/avg/max) = 15.9 | 15.9 | 15.9 Mbytes
   Step          Temp          Press           CPU            Pxx            Pyy            Pzz            Pxy            Pxz            Pyz           KinEng         PotEng         TotEng         Volume           Lx             Ly             Lz          Atoms   
         0   3200           60798.443      0              60479.755      60943.724      60971.85      -444.04471      199.99711     -502.05201      6617.7058     -4109.4047      2508.3011      167941.93      43.790145      43.790145      87.58029           16000 
      1000   3272.1923      898187.31      6.5987375      898615.38      897831.01      898115.54      1950.8371     -2344.3761      5492.0137      6767.0018      10557.179      17324.181      132613.88      40.47495       40.47495       80.949901          16000 
      2000   3199.4847      901357.65      13.200094      899853.78      901933.54      902285.63      1845.2525      3081.5364     -162.97415      6616.6401      10253.969      16870.609      132378.61      40.451001      40.451001      80.902001          16000 
      3000   3269.7479      899827.21      19.797199      898335.09      903477.33      897669.2       3139.6917     -6295.7689      1866.2183      6761.9468      10434.625      17196.571      132428.1       40.456041      40.456041      80.912083          16000 
      4000   3155.7255      901100.91      26.406632      901180.58      900186.67      901935.47     -1505.1771      7997.9997     -1648.3992      6526.1446      10471.516      16997.66       132281.48      40.441106      40.441106      80.882211          16000 
      5000   3266.3653      900092.87      33.00614       900456.4       898623.73      901198.47     -269.16431      6581.6261      2844.5729      6754.9514      10447.999      17202.95       132325.84      40.445626      40.445626      80.891251          16000 
      6000   3173.8998      900494.66      39.604498      900305.17      900744.12      900434.68      1784.366      -3157.5259     -3775.1343      6563.7297      10507.25       17070.98       132264.1       40.439334      40.439334      80.878668          16000 
      7000   3199.9586      899800.43      46.20481       899617.64      901217.69      898565.95      1515.7654     -1560.1218     -5371.4152      6617.6202      10594.867      17212.487      132312.93      40.44431       40.44431       80.88862           16000 
      8000   3174.0999      898535.89      52.807279      899745.08      898266.67      897595.93      2481.1685      1139.1974     -795.17249      6564.1435      10516.271      17080.415      132264.57      40.439382      40.439382      80.878764          16000 
      9000   3197.743       899097.39      59.407752      898923.87      898954.88      899413.41      4148.3293     -930.97531     -1668.6198      6613.0383      10563.906      17176.945      132307.83      40.44379       40.44379       80.88758           16000 
     10000   3206.892       899878.29      66.009791      899715.11      900645.83      899273.92     -3746.0935      3976.8968      3024.8995      6631.9588      10446.55       17078.508      132297.18      40.442705      40.442705      80.88541           16000 
Loop time of 66.0098 on 8 procs for 10000 steps with 16000 atoms

Performance: 6.544 ns/day, 3.667 hours/ns, 151.493 timesteps/s
61.5% CPU use with 1 MPI tasks x 8 OpenMP threads

MPI task timing breakdown:
Section |  min time  |  avg time  |  max time  |%varavg| %total
---------------------------------------------------------------
Pair    | 62.992     | 62.992     | 62.992     |   0.0 | 95.43
Neigh   | 0.076405   | 0.076405   | 0.076405   |   0.0 |  0.12
Comm    | 0.32271    | 0.32271    | 0.32271    |   0.0 |  0.49
Output  | 0.020876   | 0.020876   | 0.020876   |   0.0 |  0.03
Modify  | 2.3163     | 2.3163     | 2.3163     |   0.0 |  3.51
Other   |            | 0.2817     |            |       |  0.43

Nlocal:          16000 ave       16000 max       16000 min
Histogram: 1 0 0 0 0 0 0 0 0 0
Nghost:          14508 ave       14508 max       14508 min
Histogram: 1 0 0 0 0 0 0 0 0 0
Neighs:              0 ave           0 max           0 min
Histogram: 1 0 0 0 0 0 0 0 0 0
FullNghs:  1.76346e+06 ave 1.76346e+06 max 1.76346e+06 min
Histogram: 1 0 0 0 0 0 0 0 0 0

Total # of neighbors = 1763460
Ave neighs/atom = 110.21625
Neighbor list builds = 185
Dangerous builds = 0
run  990000
Per MPI rank memory allocation (min/avg/max) = 16.45 | 16.45 | 16.45 Mbytes
   Step          Temp          Press           CPU            Pxx            Pyy            Pzz            Pxy            Pxz            Pyz           KinEng         PotEng         TotEng         Volume           Lx             Ly             Lz          Atoms   
     10000   3206.892       899878.29      0              899715.11      900645.83      899273.92     -3746.0935      3976.8968      3024.8995      6631.9588      10446.55       17078.508      132297.18      40.442705      40.442705      80.88541           16000 
     11000   3194.2218      904557.19      6.6009665      904707.52      903712.97      905251.09      2510.7368      2154.7213      2054.6122      6605.7563      10638.38       17244.136      132181.08      40.430871      40.430871      80.861743          16000 
     12000   3195.4391      896187.99      13.202319      897069.09      895372.74      896122.15      2942.2846      6506.8983      231.00955      6608.2737      10441.212      17049.486      132368.16      40.449936      40.449936      80.899872          16000 
     13000   3212.0433      892975.88      19.806075      891341.99      895028.31      892557.34     -905.49699     -533.03749      1440.9855      6642.6118      10437.124      17079.736      132489.99      40.462343      40.462343      80.924686          16000 
     14000   3160.251       905089.85      26.408548      906077.27      903934.06      905258.2       3783.6706     -2139.4315     -1633.5271      6535.5034      10578.804      17114.307      132155.75      40.428288      40.428288      80.856576          16000 
     15000   3211.3609      900358.47      33.009478      899757.16      898388.5       902929.74      69.827094      16.981902     -1369.027       6641.2006      10464.233      17105.433      132295.46      40.44253       40.44253       80.88506           16000 
     16000   3161.2982      898396.29      39.610125      896373.49      897649.45      901165.92      1654.8237     -100.572       -206.02464      6537.6692      10581.092      17118.761      132354.11      40.448505      40.448505      80.89701           16000 
     17000   3214.4383      899129.46      46.208812      897091.51      899424.39      900872.48      708.67154     -3358.3171     -924.99873      6647.5646      10531.132      17178.697      132295.09      40.442493      40.442493      80.884985          16000 
     18000   3215.0537      897551.65      52.806399      897550.09      896618.07      898486.79     -170.39583      2790.577      -678.62634      6648.8373      10486.888      17135.726      132362.5       40.449361      40.449361      80.898721          16000 
     19000   3147.1286      902374.08      59.407197      903514.08      901357.03      902251.13     -112.15786      3503.3343     -3078.0991      6508.3659      10543.03       17051.396      132154.78      40.428189      40.428189      80.856379          16000 
     20000   3189.6748      897900.8       66.006498      897588.86      898267.15      897846.4      -2155.3161     -737.3631       1145.9418      6596.3529      10502.617      17098.97       132325.8       40.445622      40.445622      80.891243          16000 
     21000   3190.295       890426.27      72.606247      890017.7       889931.6       891329.5      -7763.0427     -2561.848      -1276.5712      6597.6356      10427.193      17024.828      132510.22      40.464402      40.464402      80.928805          16000 
     22000   3226.0405      905170.24      79.206829      907015.74      901936.23      906558.74      2687.1207     -1062.563       1231.2898      6671.5584      10627.707      17299.266      132148.35      40.427534      40.427534      80.855067          16000 
     23000   3201.9128      899358.89      85.806617      901488.74      899634.54      896953.39     -4874.0134      537.97929     -529.95334      6621.6616      10489.047      17110.708      132265.85      40.439513      40.439513      80.879026          16000 
     24000   3170.7338      901449.11      92.407339      901419.01      898512.83      904415.49     -3485.1721     -2290.7151     -844.78855      6557.1823      10583.092      17140.275      132234.07      40.436274      40.436274      80.872547          16000 
     25000   3209.0408      900694.43      99.008197      899169.97      901851.9       901061.43     -2408.6044      2605.2131     -833.71282      6636.4026      10625.858      17262.26       132298.37      40.442826      40.442826      80.885653          16000 
     26000   3196.3001      902271.55      105.60858      905207.13      899755.12      901852.41     -1173.827      -2197.8299      425.92865      6610.0543      10549.885      17159.939      132199.08      40.432706      40.432706      80.865412          16000 
     27000   3211.1825      894802.72      112.21018      896586.4       894327.09      893494.67     -3647.4046      1876.6124      233.22916      6640.8317      10523.296      17164.128      132416.38      40.454848      40.454848      80.909697          16000 
     28000   3202.6232      908354.66      118.81188      908589.24      908593.76      907880.98     -631.93796     -303.85105     -131.83653      6623.1306      10603.667      17226.797      132028.7       40.415329      40.415329      80.830659          16000 
     29000   3203.856       901337.32      125.41064      901102.31      903169.86      899739.78      1522.6487     -1496.9014     -6140.6744      6625.68        10542.76       17168.44       132266.11      40.439538      40.439538      80.879077          16000 
     30000   3189.1485      895407.6       132.00855      895394.79      893118.49      897709.53      2708.189      -800.58135      1621.0135      6595.2645      10436.099      17031.364      132385.8       40.451734      40.451734      80.903467          16000 
     31000   3234.5315      901786.19      138.60921      904412.17      901961.91      898984.48     -2397.9255     -3116.3763      3710.9236      6689.1181      10602.684      17291.802      132247.31      40.437623      40.437623      80.875246          16000 
     32000   3201.904       900729.5       145.20823      900108.9       901730.43      900349.17      3240.2027     -3168.3841     -3658.2874      6621.6434      10475.281      17096.925      132246.96      40.437588      40.437588      80.875175          16000 
     33000   3192.8652      896169.43      151.80749      896545.52      896809.63      895153.15     -1031.6178      2185.6383     -487.57118      6602.9509      10533.688      17136.639      132380.46      40.451189      40.451189      80.902379          16000 
     34000   3179.1344      906216.33      158.40404      905871.63      904043.03      908734.35      868.7051      -2215.9372     -384.56806      6574.555       10579.679      17154.234      132112.2       40.423847      40.423847      80.847694          16000 
     35000   3213.8586      898113.84      165.00135      898484.89      897967.14      897889.48     -151.32759     -468.00398      734.17362      6646.3658      10539.115      17185.48       132325.54      40.445595      40.445595      80.89119           16000 
     36000   3191.3124      892254.17      171.59741      892540.72      891111.8       893109.99     -5248.376       2856.1173      48.527325      6599.7395      10454.377      17054.116      132498.85      40.463245      40.463245      80.92649           16000 
     37000   3199.4334      904925.35      178.19637      906730.54      903470.17      904575.34     -3375.9016     -1892.2951      1030.0342      6616.534       10587.605      17204.139      132173.01      40.430048      40.430048      80.860096          16000 
     38000   3203.9514      896634.77      184.79515      896106.75      896004.61      897792.95      1460.5564      494.98674      1331.6162      6625.8773      10541.166      17167.043      132349.21      40.448007      40.448007      80.896013          16000 
     39000   3212.9707      898163.95      191.39414      899059.74      896651.67      898780.43      986.20611     -2388.0768     -784.9572       6644.5297      10472.271      17116.801      132305.26      40.443529      40.443529      80.887057          16000 
     40000   3243.1088      905668.53      197.99341      907956.65      904179.6       904869.34     -497.04627     -3763.7847      286.63221      6706.8562      10575.845      17282.701      132161.27      40.428852      40.428852      80.857703          16000 
     41000   3215.0052      893096.3       204.59314      893149.72      889664.66      896474.53      794.17786     -1750.0803      538.20173      6648.7371      10421.708      17070.445      132482.86      40.461617      40.461617      80.923234          16000 
     42000   3196.9564      898289.51      211.19186      896696.8       900366.69      897805.04      2342.3752      2642.6627     -1525.7503      6611.4116      10577.379      17188.79       132343.99      40.447474      40.447474      80.894949          16000 
     43000   3192.383       902788.38      217.78962      905842.9       901744.25      900777.98      7456.832      -2684.3255     -1304.7009      6601.9535      10507.772      17109.725      132236.14      40.436484      40.436484      80.872968          16000 
     44000   3204.531       897046.53      224.38971      895728.38      898068.42      897342.79     -4132.5331     -243.03345     -405.0687       6627.076       10480.56       17107.636      132379.67      40.451109      40.451109      80.902219          16000 
     45000   3215.3317      896391.45      230.9867       896167.78      896600.49      896406.08      687.1292       3533.0748     -803.87712      6649.4122      10457.353      17106.765      132387.9       40.451948      40.451948      80.903895          16000 
     46000   3197.8197      903984.76      237.58579      903922.77      903412.24      904619.28      1513.4284      2706.7149      2922.0193      6613.1968      10563.077      17176.274      132193.36      40.432123      40.432123      80.864246          16000 
     47000   3216.5502      903384.81      244.18418      902784.92      904078.22      903291.3      -3278.8662      2541.8053     -256.9968       6651.9321      10585.187      17237.119      132234.2       40.436286      40.436286      80.872573          16000 
     48000   3172.5524      892223.88      250.78439      892680.19      890888.07      893103.4      -2622.202      -1439.5695     -961.44651      6560.9433      10391.901      16952.844      132475.44      40.460861      40.460861      80.921722          16000 
     49000   3200.389       905070.91      257.38501      904796.01      905044.99      905371.72     -4714.6401      1497.6268     -646.77877      6618.5104      10580.856      17199.366      132153.14      40.428022      40.428022      80.856045          16000 
     50000   3218.1676      902787.7       263.98475      902471.26      902849.61      903042.22      6602.5288     -885.61615      4291.568       6655.2771      10516.11       17171.387      132206.55      40.433468      40.433468      80.866936          16000 
     51000   3243.3989      899531.27      270.58334      900419.05      901611.06      896563.7      -4135.9705     -1115.4433     -5189.1734      6707.4561      10455.52       17162.976      132294.06      40.442387      40.442387      80.884773          16000 
     52000   3159.7353      900824.9       277.18385      901598.83      901228.89      899646.98     -3617.0477     -1873.0448      2745.6563      6534.437       10524.295      17058.732      132179.88      40.430749      40.430749      80.861497          16000 
     53000   3216.5927      894028.95      283.78241      894745.83      891427.58      895913.42      349.10962     -3293.9017     -898.98555      6652.02        10432.036      17084.055      132413.27      40.454532      40.454532      80.909063          16000 
     54000   3192.8405      903237.8       290.38287      902976.82      904132.1       902604.46     -1578.6855      3579.0573      2860.9461      6602.8998      10585.202      17188.101      132183.02      40.431069      40.431069      80.862139          16000 
     55000   3250.54        903831.03      296.9835       905435.23      901535.17      904522.7       1384.2946     -1989.2507      2600.5948      6722.2242      10614.02       17336.244      132159.49      40.42867       40.42867       80.85734           16000 
     56000   3180.5084      896453.96      303.58746      895904.18      896326.02      897131.69     -2369.9785     -1016.4151     -2660.4574      6577.3965      10456.534      17033.93       132346.17      40.447697      40.447697      80.895394          16000 
     57000   3209.097       901608.32      310.19066      901690.35      901153.3       901981.29      2123.9612      9427.7481      2760.9938      6636.5186      10548.719      17185.238      132226.37      40.435489      40.435489      80.870978          16000 
     58000   3208.8833      901638.5       316.79491      901597.64      903769.63      899548.24      2956.5191     -606.45485     -1845.1942      6636.0767      10462.662      17098.739      132222.75      40.435119      40.435119      80.870239          16000 
     59000   3192.1762      897484.46      323.39777      896824.8       896091.43      899537.15     -112.59549      119.36558      1293.2716      6601.526       10564.43       17165.956      132335.11      40.44657       40.44657       80.89314           16000 
     60000   3181.1652      900226.19      329.99998      897485.82      903138.65      900054.11      1449.2754      474.98795     -1240.2662      6578.7549      10594.734      17173.489      132225.78      40.435428      40.435428      80.870857          16000 
     61000   3245.0575      905476.69      336.60573      903874.48      905723.9       906831.7      -253.37395     -219.88154      1438.9808      6710.8862      10640.739      17351.625      132141.89      40.426875      40.426875      80.85375           16000 
     62000   3213.2186      889330.97      343.21106      889620.44      889288.15      889084.3       419.35702     -1986.7828     -2171.3474      6645.0423      10357.884      17002.927      132548.78      40.468327      40.468327      80.936654          16000 
     63000   3176.0674      902672.24      349.81605      903607.26      903282.91      901126.54     -156.98018     -3427.4368      4809.671       6568.2123      10527.11       17095.322      132178.75      40.430634      40.430634      80.861267          16000 
     64000   3205.1355      901708.28      356.42282      903161.04      902241.45      899722.34      991.15429      198.60782      1535.5533      6628.3262      10522.733      17151.059      132308.91      40.4439        40.4439        80.8878            16000 
     65000   3163.1314      897802.13      363.02735      899250.71      895877.32      898278.37      1582.5371     -1161.3166     -1418.0918      6541.4603      10473.27       17014.731      132302.06      40.443203      40.443203      80.886406          16000 
     66000   3199.501       900045.66      369.63466      897626.96      900772.98      901737.05      3398.9893     -543.49806     -698.77232      6616.6739      10573.091      17189.765      132267.68      40.439699      40.439699      80.879398          16000 
     67000   3179.3365      900322.34      376.24288      900719.05      900443.23      899804.73     -966.16581      30.735933     -937.24075      6574.973       10495.808      17070.781      132271.79      40.440118      40.440118      80.880236          16000 
     68000   3162.6346      892452.2       382.85115      891606.47      891730.27      894019.86     -2019.306       4439.9996      4194.4027      6540.433       10467.176      17007.609      132441.46      40.457402      40.457402      80.914803          16000 
     69000   3189.5237      907131.36      389.45919      905910.01      906575.46      908908.6       481.189        5945.6435     -3394.8335      6596.0405      10634.969      17231.01       132054.39      40.41795       40.41795       80.8359            16000 
     70000   3208.6234      899787.01      396.06761      903116.46      898984.35      897260.23      439.38801     -4076.7482     -384.00842      6635.5393      10541.481      17177.021      132286.25      40.441592      40.441592      80.883183          16000 
     71000   3188.942       896204.29      402.67351      897673.49      896563.95      894375.42     -2789.609      -3691.3637     -1109.1738      6594.8375      10410.337      17005.174      132372.09      40.450336      40.450336      80.900673          16000 
     72000   3223.8872      899959.96      409.27938      900053.75      901051.92      898774.19      1011.3564      872.17951     -3613.1409      6667.1052      10500.777      17167.882      132296.14      40.4426        40.4426        80.885199          16000 
     73000   3207.58        903343.12      415.88459      905103.91      904944.66      899980.8      -357.41063     -61.466588     -3303.9575      6633.3815      10542.785      17176.167      132165.33      40.429266      40.429266      80.858531          16000 
     74000   3234.8279      895400.49      422.49169      892864.83      896635.7       896700.95     -3080.546      -1985.1455      3798.0215      6689.731       10419.272      17109.003      132426.3       40.455858      40.455858      80.911716          16000 
     75000   3161.5358      900344.63      429.09894      897979.92      904712.56      898341.42     -2515.6548     -21.895511      1557.3992      6538.1605      10549.832      17087.992      132259.99      40.438915      40.438915      80.87783           16000 
     76000   3212.6482      905811.03      435.70482      908168.6       906005.52      903258.99      1139.9737     -3060.7921      1570.292       6643.8626      10632.542      17276.404      132118.81      40.424521      40.424521      80.849042          16000 
     77000   3197.5484      891906.94      442.31213      891517.48      891071.93      893131.41     -375.0462       802.54529      4097.2494      6612.6358      10352.495      16965.131      132481.07      40.461434      40.461434      80.922868          16000 
     78000   3196.9164      902284.37      448.92171      902070.9       900738.36      904043.84      940.87392      1643.7418     -665.21575      6611.3289      10560.903      17172.232      132190.73      40.431855      40.431855      80.863709          16000 
     79000   3204.0223      902733.89      455.52742      903610.57      900543.24      904047.86     -640.20501     -6430.871       2786.1793      6626.024       10580.478      17206.502      132219.83      40.434821      40.434821      80.869643          16000 
     80000   3174.2451      896749.66      462.13755      896581.99      899024.48      894642.52      3310.6578     -623.13879     -1486.5482      6564.4439      10514.148      17078.592      132362.29      40.449339      40.449339      80.898678          16000 
     81000   3210.7394      903862.38      468.74827      902427.21      906484.18      902675.73     -1812.4391      2380.8043      588.63008      6639.9152      10568.351      17208.267      132221.26      40.434967      40.434967      80.869934          16000 
     82000   3194.3154      898335.91      475.3669       899100.92      896842.24      899064.56     -152.9728      -2118.3982     -3555.3217      6605.9499      10449.596      17055.546      132319.37      40.444966      40.444966      80.889932          16000 
     83000   3234.0115      893730.74      481.98473      892720.82      892819.95      895651.46     -1717.5531     -4541.433       1978.3221      6688.0426      10411.664      17099.706      132447.62      40.458029      40.458029      80.916057          16000 
     84000   3196.0435      908575.81      488.60366      907833.91      907611.68      910281.83      3261.3825     -6065.158       3592.0407      6609.5237      10570.878      17180.402      132035.04      40.415976      40.415976      80.831951          16000 
     85000   3196.134       896715.48      495.21932      895842.91      896759.33      897544.22      4426.4559      822.83066      3568.9707      6609.7108      10575.992      17185.703      132321.33      40.445166      40.445166      80.890333          16000 
     86000   3205.9883      898426.36      501.82899      896768.48      898820.76      899689.86      1922.3453      2701.89       -2254.1451      6630.0899      10504.474      17134.564      132308.8       40.443889      40.443889      80.887778          16000 
     87000   3176.6381      900473.65      508.44258      900163.49      901361.44      899896.02     -102.9725       1372.9677     -1543.6178      6569.3926      10632.204      17201.597      132254.81      40.438387      40.438387      80.876774          16000 
     88000   3179.6073      901266.04      515.05818      901609.15      898851.58      903337.38     -3839.2067      1656.3352     -3197.8821      6575.5329      10557.103      17132.636      132229.71      40.435829      40.435829      80.871659          16000 
     89000   3203.1108      894484.07      521.67845      893854.86      894058.29      895539.06      1199.5018      826.67428     -1023.5043      6624.1391      10458.179      17082.318      132396.32      40.452805      40.452805      80.90561           16000 
     90000   3213.5261      908150.92      528.29441      908415.56      908260.89      907776.31      1466.2913     -2471.8817      4138.3788      6645.6783      10662.737      17308.415      132071.23      40.419668      40.419668      80.839337          16000 
     91000   3199.2666      901927.04      534.91527      902374.78      899929.69      903476.66      3263.6596      1455.881      -1470.0045      6616.1891      10499.216      17115.406      132186.93      40.431468      40.431468      80.862936          16000 
     92000   3224.1529      897327.35      541.53364      897177.91      897907.5       896896.64     -103.14923      2475.2681      4201.7341      6667.6549      10478.358      17146.012      132336.53      40.446714      40.446714      80.893428          16000 
     93000   3208.1825      901348.46      548.15544      900255.58      902123.48      901666.33     -552.48798      1320.3647     -1579.7161      6634.6274      10553.996      17188.623      132216.69      40.434502      40.434502      80.869003          16000 
     94000   3186.2828      896665.7       554.77733      895770.64      896534.76      897691.69      3113.8949     -936.5543      -491.04679      6589.3381      10596.621      17185.959      132361.67      40.449276      40.449276      80.898551          16000 
     95000   3222.5441      895937.16      561.40078      896716.19      893226.49      897868.8      -2649.133       586.11491      4177.5226      6664.3277      10481.134      17145.462      132422.27      40.455448      40.455448      80.910896          16000 
     96000   3204.2399      903941.5       568.02473      904013.8       901574.55      906236.14      1636.9567      6045.8041     -4192.003       6626.474       10582.46       17208.934      132188.35      40.431612      40.431612      80.863224          16000 
     97000   3202.2584      901335.75      574.64691      901837.56      902007.74      900161.97     -146.68629     -3256.7575      2861.8886      6622.3762      10473.4        17095.776      132248.23      40.437717      40.437717      80.875433          16000 
     98000   3220.888       892899.07      581.26912      894354.58      891325.3       893017.34     -252.0034      -1606.3578      2224.4061      6660.9029      10433.65       17094.553      132468.37      40.460142      40.460142      80.920284          16000 
     99000   3211.8033      902334.56      587.89195      901806.72      901856.41      903340.54     -5527.0542      1743.2605     -2834.7989      6642.1155      10516.06       17158.176      132190.78      40.431861      40.431861      80.863721          16000 
    100000   3201.7388      903601.95      594.51979      903193.49      903908.35      903704.03     -1708.5138     -172.87174     -1424.6793      6621.3017      10594.085      17215.387      132177.1       40.430466      40.430466      80.860932          16000 
    101000   3203.4714      894669.97      601.14246      895311.67      893146.48      895551.77     -1437.173      -831.31741      2904.8725      6624.8848      10490.62       17115.505      132433.14      40.456555      40.456555      80.91311           16000 
    102000   3187.5276      899262.07      607.75745      897728.67      902276.91      897780.64     -2588.9038      4390.9226     -4802.7759      6591.9124      10533.142      17125.055      132289.36      40.441908      40.441908      80.883816          16000 
    103000   3202.9588      904463.1       614.36907      904508.62      902581.36      906299.32     -3528.642      -1210.6996      3052.7746      6623.8246      10661.977      17285.802      132181.09      40.430872      40.430872      80.861744          16000 
    104000   3177.6977      896351.48      620.97907      895577.13      899180.9       894296.41     -254.93703      1231.0488     -3329.0524      6571.5839      10516.937      17088.521      132351.13      40.448202      40.448202      80.896403          16000 
    105000   3206.7461      897865.8       627.58649      898610.65      896766.93      898219.81      1663.8172      3119.1962     -676.77532      6631.657       10603.174      17234.831      132354.61      40.448556      40.448556      80.897113          16000 
    106000   3189.4364      908502.09      634.19091      910794.35      907304.5       907407.43     -2571.5202     -3713.2924     -7782.5976      6595.86        10677.922      17273.782      132025.13      40.414965      40.414965      80.829929          16000 
    107000   3198.3039      895228.09      640.80019      895953.09      895905.64      893825.52     -626.00442     -3048.9265      78.748489      6614.1981      10475.955      17090.153      132416.07      40.454816      40.454816      80.909632          16000 
    108000   3177.4561      898197.07      647.40664      896240.1       896938.55      901412.57      1840.5235     -1731.5165      1662.6007      6571.0843      10547.835      17118.92       132334.25      40.446482      40.446482      80.892964          16000 
    109000   3218.3114      901854.6       654.01258      900141         904041.62      901381.18      1401.6998     -182.59765     -2074.2684      6655.5744      10554.073      17209.648      132261.13      40.439031      40.439031      80.878063          16000 
    110000   3214.9879      900627.36      660.61391      900468.67      902598.18      898815.23     -119.9516      -3694.3487      628.95959      6648.7014      10437.485      17086.187      132308.9       40.4439        40.4439        80.887799          16000 
    111000   3220.8596      896834.88      667.21538      894528.2       898547.8       897428.64     -1003.4816     -1132.2055     -352.66284      6660.844       10435.207      17096.051      132363.02      40.449413      40.449413      80.898827          16000 
    112000   3211.0889      910036.22      673.81684      911771.62      911012.11      907324.94      154.24132      3220.0939     -2048.8548      6640.638       10626.347      17266.985      132045.41      40.417034      40.417034      80.834068          16000 
    113000   3165.3149      896746.95      680.41994      894747.42      896455.02      899038.4      -989.81899      5192.6761      231.07222      6545.9759      10478.186      17024.162      132359.07      40.449011      40.449011      80.898021          16000 
    114000   3206.932       897401.24      687.02051      898853.59      898551.56      894798.57      2734.0161     -1343.4733     -3468.7739      6632.0414      10501.048      17133.09       132367.73      40.449892      40.449892      80.899785          16000 
    115000   3213.6394      900895.28      693.62022      897178.02      902386.14      903121.68     -1225.7919      437.00568      1527.9111      6645.9125      10494.208      17140.12       132226.04      40.435454      40.435454      80.870909          16000 
    116000   3233.4373      897854.86      700.2192       896903.77      898945.14      897715.69     -886.75719     -2868.2667     -1912.303       6686.8553      10531.077      17217.932      132341.49      40.44722       40.44722       80.89444           16000 
    117000   3203.4588      894655.36      706.82078      894372.59      895626.32      893967.16     -416.65562     -2442.7085     -2306.0599      6624.8586      10480.136      17104.995      132422.3       40.45545       40.45545       80.910901          16000 
    118000   3187.5916      901521.34      713.42133      898155.27      903438.8       902969.95      577.52192      1764.814       5352.9485      6592.0449      10455.569      17047.614      132204.44      40.433252      40.433252      80.866505          16000 
    119000   3200.0446      901999.11      720.02356      903910.63      901424.46      900662.24      1136.4737      2006.3562     -1707.2893      6617.7981      10610.458      17228.256      132239.9       40.436868      40.436868      80.873735          16000 
    120000   3180.6802      892130.88      726.63382      892534.64      891655         892203.01     -1351.5349     -2782.3951     -2813.7175      6577.7518      10390.209      16967.961      132488.49      40.46219       40.46219       80.924381          16000 
    121000   3234.5895      904771.58      733.24471      903707.05      902861.9       907745.8      -1417.6259      4217.4206     -4915.8226      6689.2379      10622.701      17311.939      132215.42      40.434372      40.434372      80.868744          16000 
    122000   3156.6812      902150.82      739.85731      901363.74      902618.34      902470.38      5139.9194     -1897.5902     -2539.9272      6528.121       10599.333      17127.454      132231.62      40.436023      40.436023      80.872046          16000 
    123000   3200.3455      896958.36      746.4717       899131.6       897610.12      894133.35      6078.5651      1608.1512      2806.2525      6618.4204      10585.937      17204.357      132377.24      40.450862      40.450862      80.901724          16000 
    124000   3151.2087      903587.26      753.09001      904706.89      901503.8       904551.1       4596.0163     -1843.9184      2593.5161      6516.8037      10608.204      17125.007      132198.95      40.432694      40.432694      80.865387          16000 
    125000   3223.6919      897907.32      759.70864      897575         898172.43      897974.53      2923.9837      904.78365      1324.5168      6666.7015      10540.112      17206.814      132384.24      40.451575      40.451575      80.90315           16000 
    126000   3196.4         895336.47      766.32988      895737.31      895692.76      894579.34     -3675.082       3983.508      -1391.6744      6610.2608      10422.917      17033.178      132381.03      40.451247      40.451247      80.902494          16000 
    127000   3213.6712      905420.47      772.95172      904556.49      906204.58      905500.35      1944.614       377.35416      1423.0854      6645.9783      10666.171      17312.149      132133.24      40.425993      40.425993      80.851986          16000 
    128000   3194.847       900242.74      779.57587      900925.54      898628.99      901173.67      468.13148      2354.0477      1139.3635      6607.0491      10516.449      17123.498      132277.66      40.440716      40.440716      80.881431          16000 
    129000   3218.9771      895583.29      786.19754      894251.43      896185.4       896313.04     -2747.8428     -4698.2275      4365.5915      6656.9511      10448.942      17105.893      132390.41      40.452203      40.452203      80.904407          16000 
    130000   3159.0194      901382.64      792.81817      904458.09      899483.39      900206.44     -594.28752      4809.99        1480.3632      6532.9565      10580.63       17113.586      132194.6       40.43225       40.43225       80.8645            16000 
    131000   3230.8769      900809.63      799.44124      899552.34      901154.19      901722.36     -325.77015      2713.3379      4067.5609      6681.5603      10557.273      17238.833      132291.4       40.442116      40.442116      80.884233          16000 
    132000   3206.7843      900565.13      806.06297      900794.35      898993.17      901907.86      882.77571      3701.3013      995.13668      6631.7359      10487.715      17119.451      132271.86      40.440125      40.440125      80.880249          16000 
    133000   3206.3453      900536.12      812.68515      900690.93      900156.03      900761.4      -4041.0464     -1421.3577      3552.7957      6630.828       10528.773      17159.601      132286.74      40.441641      40.441641      80.883282          16000 
    134000   3224.3336      892614.2       819.30853      892191.34      892216.51      893434.75     -2431.6724     -827.56238      1709.4833      6668.0284      10484.377      17152.406      132459.34      40.459222      40.459222      80.918444          16000 
    135000   3185.7178      907090.87      825.93109      906093.49      908512.76      906666.38     -864.56183     -1656.3413     -2713.4084      6588.1697      10710.799      17298.969      132058.73      40.418393      40.418393      80.836786          16000 
    136000   3206.6232      901201.99      832.55401      901337.36      900151.32      902117.3      -2040.5862     -1554.3423     -6708.4952      6631.4028      10523.038      17154.441      132230.71      40.435931      40.435931      80.871862          16000 
    137000   3208.9429      899014.08      839.17849      899542.32      898449.82      899050.12     -2379.5856      159.82675     -839.37936      6636.2         10516.124      17152.324      132307.27      40.443734      40.443734      80.887467          16000 
    138000   3223.3226      899642.17      845.7959       899681.18      898239.78      901005.56      547.81985     -308.21624     -971.42458      6665.9378      10529.896      17195.834      132265         40.439426      40.439426      80.878852          16000 
    139000   3194.854       899568.43      852.41949      899475.28      899652.03      899577.99     -5006.7895      1810.2485      566.55614      6607.0638      10535.363      17142.426      132302.8       40.443278      40.443278      80.886555          16000 
    140000   3201.2204      897462.72      859.04422      897034.3       897410.05      897943.8      -6067.0316     -4454.0153      1930.6478      6620.2295      10525.512      17145.741      132328.65      40.445912      40.445912      80.891823          16000 
    141000   3142.1006      908439.68      865.66412      908132.4       909884.72      907301.91     -2327.4199      6903.6865      2672.2682      6497.9679      10739.079      17237.047      132028.31      40.415289      40.415289      80.830578          16000 
    142000   3221.3631      893600.32      872.28683      892309.19      894215.69      894276.08      2277.7264      1928.5675     -3224.2843      6661.8854      10476.177      17138.062      132438.74      40.457125      40.457125      80.914249          16000 
    143000   3188.6839      898283.86      878.90845      896281.58      899878.37      898691.64     -455.05745     -4003.1377     -3472.1989      6594.3037      10486.131      17080.435      132314.36      40.444455      40.444455      80.888911          16000 
    144000   3225.4721      901122.09      885.53154      902022.93      899171.54      902171.81     -884.9082       3901.1471      181.78335      6670.383       10551.786      17222.169      132290.87      40.442062      40.442062      80.884123          16000 
    145000   3210.0371      900275.21      892.15544      901967.45      897832.02      901026.16      606.60228      5947.2531      1170.4773      6638.4628      10489.787      17128.25       132295.43      40.442526      40.442526      80.885053          16000 
    146000   3190.4296      898419.24      898.77854      895379.59      900272.27      899605.88     -984.62847     -303.03962      2190.8208      6597.9138      10554.231      17152.145      132349.59      40.448045      40.448045      80.89609           16000 
    147000   3178.812       899858.47      905.39951      898328.18      900566.09      900681.13     -3218.5839     -332.84516     -1440.9016      6573.8884      10532.204      17106.093      132289.23      40.441895      40.441895      80.883789          16000 
    148000   3235.5018      906281.3       912.0216       906832.17      904234.57      907777.16     -3223.6114     -904.21268     -1209.2277      6691.1246      10610.91       17302.035      132141.39      40.426824      40.426824      80.853648          16000 
    149000   3181.2911      893583.31      918.64799      894503.65      891027.56      895218.72      2170.5203      2019.1074     -532.91919      6579.0152      10480.476      17059.491      132478.37      40.46116       40.46116       80.92232           16000 
    150000   3162.2408      900816.68      925.26964      900472.26      900710.14      901267.63     -729.4473      -1556.6735      1957.3705      6539.6186      10497.741      17037.36       132258.26      40.438739      40.438739      80.877477          16000 
    151000   3195.4657      902715.53      931.89496      902004.55      904047.34      902094.71     -1376.4813      193.8602      -9927.4006      6608.3287      10550.789      17159.118      132211.63      40.433985      40.433985      80.867971          16000 
    152000   3198.5773      898908.7       938.51672      898037.64      899199.59      899488.86      1348.6369     -759.45747     -3221.2516      6614.7635      10510.041      17124.804      132294.15      40.442396      40.442396      80.884792          16000 
    153000   3220.2845      902903.34      945.14143      902888.07      902613.85      903208.12      2101.2779     -687.45497      1048.3733      6659.6548      10579.759      17239.414      132245.27      40.437415      40.437415      80.874829          16000 
    154000   3185.3842      903925.15      951.7642       901665.01      903144.02      906966.43      3542.6498     -2335.4038      1699.4143      6587.4798      10516.957      17104.437      132193.05      40.432092      40.432092      80.864184          16000 
    155000   3196.8476      887433.1       958.39102      889238.55      888325.43      884735.3       1746.4937     -3063.9986     -1173.2376      6611.1865      10334.227      16945.413      132621.5       40.475726      40.475726      80.951451          16000 
    156000   3167.4785      902973.66      965.01635      901903.94      903330.3       903686.74      2634.5957      35.325811     -491.34952      6550.4503      10601.892      17152.343      132168.45      40.429583      40.429583      80.859167          16000 
    157000   3192.0535      901676.46      971.64204      901627.73      900834.54      902567.13     -1592.6641      3440.9146     -79.952121      6601.2722      10527.759      17129.031      132245.38      40.437426      40.437426      80.874852          16000 
    158000   3189.9418      898170.36      978.26656      900448.02      897419.95      896643.12      2270.5328     -1321.1936     -4310.518       6596.9052      10517.141      17114.046      132292.48      40.442227      40.442227      80.884453          16000 
    159000   3196.8663      904393.37      984.88885      903757.53      903681.48      905741.1      -376.81142     -179.28856     -3969.6142      6611.2252      10617.873      17229.098      132168.75      40.429614      40.429614      80.859227          16000 
    160000   3170.9266      897174.42      991.51179      896321.12      899752.35      895449.78     -3404.381      -480.08917     -3964.5533      6557.581       10522.192      17079.773      132299.74      40.442966      40.442966      80.885933          16000 
    161000   3181.2085      899481.06      998.13881      899228.12      899287.76      899927.3       2335.9234      293.76233      1099.8815      6578.8443      10507.903      17086.747      132324.89      40.445529      40.445529      80.891058          16000 
    162000   3229.9651      907919.56      1004.7617      907872.24      907599.78      908286.66     -3038.7661     -766.99593      2720.6223      6679.6746      10636.85       17316.524      132057.37      40.418254      40.418254      80.836509          16000 
    163000   3173.6493      896609.08      1011.3824      898344.11      894797.45      896685.69      3069.5501     -3757.8678      1199.9242      6563.2116      10497.309      17060.521      132332.55      40.446309      40.446309      80.892618          16000 
    164000   3219.4309      900712.04      1018.0058      900550.34      898895.36      902690.41      2418.585      -1325.03        2875.5331      6657.8896      10492.584      17150.474      132311.42      40.444156      40.444156      80.888312          16000 
    165000   3177.6631      902406.12      1024.6284      901697.65      901839.08      903681.63      3320.0673      1075.0802      3467.8222      6571.5123      10559.693      17131.206      132159.21      40.428642      40.428642      80.857283          16000 
    166000   3170.8606      895443.58      1031.2525      895680.31      896658.57      893991.86      4974.0921      613.43643      3984.2593      6557.4446      10520.012      17077.456      132369.21      40.450044      40.450044      80.900087          16000 
    167000   3191.9781      903017.38      1037.8784      902492.82      902333.87      904225.45      762.35625      412.32257     -571.8905       6601.1163      10551.696      17152.812      132198.01      40.432598      40.432598      80.865195          16000 
    168000   3225.0787      903996.48      1044.4983      904814.13      903545.14      903630.18      2811.4285     -888.51577      518.43376      6669.5695      10666.192      17335.761      132180.44      40.430806      40.430806      80.861612          16000 
    169000   3191.2476      894305.01      1051.1234      897747.84      891520.34      893646.84     -1217.2296      2115.4899      2414.0336      6599.6055      10388.418      16988.023      132445.15      40.457778      40.457778      80.915556          16000 
    170000   3216.9022      902336.52      1057.7462      903028.35      903316.35      900664.87     -104.0669       2516.7649      2362.5982      6652.66        10566.302      17218.962      132253.53      40.438257      40.438257      80.876513          16000 
    171000   3192.8705      904914.52      1064.3709      905788.94      903572.7       905381.9      -561.73936     -736.72712     -1817.581       6602.9618      10512.648      17115.61       132157.62      40.428479      40.428479      80.856958          16000 
    172000   3216.2471      897732.07      1070.9912      898024.48      898373.97      896797.77      1918.2357     -356.11192      768.19596      6651.3053      10462.208      17113.514      132374.67      40.4506        40.4506        80.901199          16000 
    173000   3165.0764      900398.24      1077.612       902403.47      898865.53      899925.72      123.40623     -2733.7223      915.08877      6545.4826      10458.453      17003.935      132252.43      40.438145      40.438145      80.876289          16000 
    174000   3183.4197      902912.73      1084.2377      903660.99      902842.45      902234.76      4911.138       1402.0675     -134.78244      6583.4173      10645.471      17228.889      132198.36      40.432633      40.432633      80.865265          16000 
    175000   3209.2319      892468.04      1090.8633      893935.56      892186.48      891282.1      -1425.107       1854.0831      3143.4766      6636.7976      10351.096      16987.894      132502.2       40.463586      40.463586      80.927171          16000 
    176000   3225.4061      903551.11      1097.4891      903606.8       902311.03      904735.51     -7100.3506      801.10736      1310.1165      6670.2465      10552.653      17222.899      132181.94      40.430959      40.430959      80.861918          16000 
    177000   3228.3405      901467.34      1104.1118      901290.56      901045.63      902065.84     -4159.3663      661.85566     -3665.1424      6676.3148      10600.84       17277.155      132195.5       40.432341      40.432341      80.864683          16000 
    178000   3186.6628      897255.78      1110.7375      896619.96      895547.67      899599.71     -1768.0903     -5387.9824      1807.1652      6590.1239      10535.234      17125.357      132320.42      40.445073      40.445073      80.890146          16000 
    179000   3240.6363      900378.37      1117.3617      901531         899863.04      899741.08     -1033.944      -1187.2567     -126.3823       6701.743       10540.268      17242.011      132234.67      40.436335      40.436335      80.872669          16000 
    180000   3204.5095      898552.97      1123.9871      898806.57      901032.86      895819.47     -4479.8551      4949.4157      1448.0911      6627.0315      10501.179      17128.21       132286.61      40.441628      40.441628      80.883256          16000 
    181000   3182.5656      898103.86      1130.6125      896043.14      899399.85      898868.6      -1204.5101     -585.86409      1020.9373      6581.6508      10641.407      17223.058      132297.15      40.442703      40.442703      80.885405          16000 
    182000   3187.5983      907988.44      1137.2315      910456.7       906722.56      906786.07      3934.3369      174.79892     -1646.7608      6592.0586      10685.321      17277.38       132012.63      40.413689      40.413689      80.827377          16000 
    183000   3203.5393      891680.95      1143.853       893405.47      892411.03      889226.35      4560.6387     -1986.1623     -45.258514      6625.0253      10477.585      17102.611      132470.21      40.460329      40.460329      80.920658          16000 
    184000   3171.9323      898758.33      1150.4738      897761.97      900176.44      898336.58     -6508.7832      859.06274      1793.2884      6559.6609      10523.656      17083.317      132280.22      40.440977      40.440977      80.881953          16000 
    185000   3217.6525      901878.87      1157.0936      900373.65      901873.51      903389.45     -156.9222       322.70167     -530.16847      6654.2118      10525.537      17179.749      132239.67      40.436844      40.436844      80.873689          16000 
    186000   3202.4163      897773.13      1163.7192      898464.68      897547.57      897307.13     -1501.8896     -733.41959      822.08423      6622.7028      10457.163      17079.866      132304.04      40.443404      40.443404      80.886808          16000 
    187000   3199.8687      897944.36      1170.3425      898832.33      896968.2       898032.56      596.36557     -956.22743      2345.5332      6617.4342      10602.476      17219.91       132273.22      40.440264      40.440264      80.880527          16000 
    188000   3183.233       904456.28      1176.9669      902416.44      904528.55      906423.85      551.65854      520.16598      4878.3735      6583.031       10640.314      17223.345      132145.77      40.427271      40.427271      80.854542          16000 
    189000   3186.9833      893536.28      1183.5907      893992.38      893103.1       893513.36     -1979.7738     -727.37758     -1281.5198      6590.7868      10441.54       17032.327      132409.94      40.454192      40.454192      80.908384          16000 
    190000   3213.2483      901825.82      1190.2165      902675.18      902487.17      900315.12     -1440.0397      728.13656      3966.0288      6645.1037      10594.124      17239.227      132226.12      40.435463      40.435463      80.870925          16000 
    191000   3207.167       905302.46      1196.8416      905603.76      904636.81      905666.82      312.02071      385.3297       4222.1104      6632.5273      10638.75       17271.277      132129         40.425561      40.425561      80.851122          16000 
    192000   3175.4328      894895.27      1203.4682      896873.33      893677.96      894134.52     -2829.6427      6523.565      -990.86047      6566.9001      10481.449      17048.349      132359.13      40.449016      40.449016      80.898033          16000 
    193000   3226.7465      902632.68      1210.092       900863.21      903061.5       903973.34      840.78131      841.59967      2425.033       6673.0185      10526.767      17199.786      132184.03      40.431172      40.431172      80.862345          16000 
    194000   3198.4256      903042.28      1216.7166      903630.7       903523.11      901973.02      2186.4326     -2702.7676      2899.5107      6614.4499      10539.174      17153.623      132163.24      40.429053      40.429053      80.858105          16000 
    195000   3171.1919      896187.98      1223.3543      898920.49      892188.03      897455.42     -868.61499     -2408.3729     -388.37585      6558.1296      10487.469      17045.599      132332.55      40.446309      40.446309      80.892618          16000 
    196000   3212.6914      900057.07      1229.9754      899004.17      898846.53      902320.5      -4532.9392      1047.4985     -3808.4198      6643.952       10539.989      17183.941      132273.17      40.440258      40.440258      80.880516          16000 
    197000   3176.298       905886.1       1236.6004      904540.36      906475.29      906642.64     -7.7695014      1106.1763     -2288.8191      6568.6893      10595.291      17163.981      132087.15      40.421292      40.421292      80.842584          16000 
    198000   3206.7995      891672.77      1243.228       890559.61      891116.01      893342.69     -1141.1644      1435.8978     -3378.9954      6631.7674      10455.608      17087.375      132486.75      40.462013      40.462013      80.924026          16000 
    199000   3207.7318      900417.95      1249.8533      901187.29      899482.41      900584.14     -1325.7056      160.07661     -6915.7943      6633.6953      10523.414      17157.109      132233.25      40.43619       40.43619       80.87238           16000 
    200000   3171.6275      905041.57      1256.4857      906338.39      902918.2       905868.13     -1314.9205      757.6758      -867.40041      6559.0304      10635.821      17194.852      132194.45      40.432234      40.432234      80.864468          16000 
    201000   3194.4242      895936.48      1263.1208      897748.05      894112.38      895949         3793.786      -1551.0557      1423.7411      6606.1749      10479.114      17085.289      132383.67      40.451517      40.451517      80.903034          16000 
    202000   3186.4523      900845.43      1269.749       899972.16      900676.62      901887.52     -4241.941       2693.3474     -1724.0471      6589.6886      10496.226      17085.915      132291.13      40.442088      40.442088      80.884176          16000 
    203000   3202.179       908181.47      1276.3752      907035.9       908969.87      908538.65      7350.8279     -3856.881       1415.9889      6622.212       10651.197      17273.409      132058.46      40.418365      40.418365      80.836731          16000 
    204000   3212.6031      895047.19      1283.0031      891649.7       896197.92      897293.95      1453.2101     -1238.5137      554.02592      6643.7695      10560.572      17204.341      132389.57      40.452118      40.452118      80.904236          16000 
    205000   3207.4841      896874.01      1289.6291      895791.11      896552.41      898278.5      -710.39024      1911.4749     -986.19911      6633.1831      10408.045      17041.228      132342.1       40.447281      40.447281      80.894563          16000 
    206000   3210.5826      905564.39      1296.2507      903359.44      908012.78      905320.94      2365.9854      318.21432      6786.0295      6639.591       10580.938      17220.529      132162.48      40.428975      40.428975      80.857949          16000 
    207000   3195.1631      899396.78      1302.8745      899058.69      899009.24      900122.42     -5576.5063      879.71943     -657.51184      6607.703       10514.254      17121.957      132241.09      40.436989      40.436989      80.873978          16000 
    208000   3190.6905      893475.61      1309.4984      893158.52      893642.92      893625.39     -3688.4466      386.30557      2806.6274      6598.4534      10431.849      17030.303      132403.01      40.453486      40.453486      80.906972          16000 
    209000   3192.792       903138.08      1316.1218      902406.22      901735.76      905272.26     -2712.7375     -508.38392     -2052.0791      6602.7994      10578.817      17181.617      132199.49      40.432748      40.432748      80.865496          16000 
    210000   3194.8305      899911.7       1322.7485      899516.4       900770.45      899448.25      458.73863      3447.7266      4619.4544      6607.0152      10551.187      17158.202      132331.44      40.446196      40.446196      80.892392          16000 
    211000   3203.0964      898542.26      1329.3752      898520.5       898636.55      898469.74     -7827.8032      2187.7944      632.16735      6624.1093      10472.52       17096.63       132330.13      40.446062      40.446062      80.892125          16000 
    212000   3222.5971      908281.99      1336.0032      908850.89      908183.73      907811.36     -3428.6215      2873.0591     -300.06224      6664.4373      10624.715      17289.153      132060.68      40.418591      40.418591      80.837183          16000 
    213000   3195.3126      896400.05      1342.631       896261.06      899928.05      893011.05     -407.04193      915.85474      44.232628      6608.0121      10420.97       17028.982      132392.36      40.452401      40.452401      80.904803          16000 
    214000   3190.0488      898732.83      1349.2592      899334.59      897981.39      898882.5      -5072.2909      2142.9001     -3203.6892      6597.1263      10510.016      17107.142      132330.93      40.446144      40.446144      80.892289          16000 
    215000   3198.2474      903318.18      1355.8862      903421.96      899306.38      907226.21     -31.81906       3247.7173     -3628.6806      6614.0813      10549.124      17163.206      132179.32      40.430691      40.430691      80.861383          16000 
    216000   3194.7749      900453.55      1362.5156      899651.21      897954.85      903754.58     -200.57279     -2553.2927     -2821.3828      6606.9002      10511.014      17117.915      132223.9       40.435237      40.435237      80.870474          16000 
    217000   3235.5003      895409.09      1369.1442      895332.32      895469.32      895425.62      1794.427       173.21075      501.6111       6691.1217      10558.687      17249.808      132397.8       40.452956      40.452956      80.905911          16000 
    218000   3185.44        905980.69      1375.7698      905778.63      907868.4       904295.03      3081.2799     -2662.3351      927.4026       6587.5953      10600.483      17188.078      132104.61      40.423073      40.423073      80.846145          16000 
    219000   3173.7011      899509.09      1382.3987      897890.25      898996.47      901640.55      700.44568      1789.0069     -1912.5382      6563.3188      10531.645      17094.964      132264.74      40.439399      40.439399      80.878798          16000 
    220000   3209.1917      895939.64      1389.0272      896252.86      897297.35      894268.69      1101.2194      2099.9009     -663.43008      6636.7145      10483.302      17120.016      132408.92      40.454088      40.454088      80.908176          16000 
    221000   3155.816       903782.72      1395.6542      904816.99      903191.2       903339.97      1487.2146      903.42443     -1046.114       6526.3318      10550.386      17076.718      132173.97      40.430146      40.430146      80.860293          16000 
    222000   3230.9509      900687.8       1402.2838      901406.92      899126.71      901529.76      1788.9344     -943.27493      3600.2504      6681.7133      10495.289      17177.002      132254.52      40.438358      40.438358      80.876716          16000 
    223000   3210.3667      895672.08      1408.9088      895076.93      896094.18      895845.12      4275.3597     -4197.5077     -2736.5344      6639.1444      10410.536      17049.681      132391.42      40.452305      40.452305      80.904611          16000 
    224000   3237.5142      904341.96      1415.538       902108.49      905239.93      905677.47      2480.2854     -2901.9226     -789.70063      6695.2863      10647.329      17342.615      132183.31      40.431098      40.431098      80.862197          16000 
    225000   3222.3648      902797.27      1422.1651      903737.75      901070.07      903584        -3042.6766     -109.42875     -831.3535       6663.957       10483.291      17147.248      132208.7       40.433687      40.433687      80.867374          16000 
    226000   3203.3802      896070.35      1428.7879      892906.64      897219.53      898084.89      1612.8824     -1611.94       -2608.0333      6624.6961      10451.941      17076.637      132378.17      40.450957      40.450957      80.901913          16000 
    227000   3208.6262      903950.28      1435.4083      904215.5       903155.93      904479.39      1620.4113     -2463.1999     -3335.1305      6635.545       10553.868      17189.413      132220.41      40.434881      40.434881      80.869763          16000 
    228000   3208.0499      900423.77      1442.0323      902229.7       899803.74      899237.86      5788.1357     -5230.4824     -4067.0518      6634.3532      10567.605      17201.959      132299.06      40.442897      40.442897      80.885794          16000 
    229000   3219.3229      894183.46      1448.6568      892956.48      894682.72      894911.18      2491.4782     -3924.6046     -1978.7055      6657.6663      10420.801      17078.467      132495.38      40.462891      40.462891      80.925782          16000 
    230000   3184.5554      903976.43      1455.2815      902443.06      904708.98      904777.25     -964.76705      1995.4529     -1806.2532      6585.7657      10577.625      17163.39       132160.69      40.428792      40.428792      80.857584          16000 
    231000   3214.6237      901168.37      1461.9077      899326.76      902380.01      901798.33     -1483.9175      4882.0472     -890.93482      6647.948       10592.289      17240.237      132248.8       40.437775      40.437775      80.87555           16000 
    232000   3203.3021      895020.16      1468.532       895050.28      894135.67      895874.54     -905.25868      515.07965      2845.7085      6624.5346      10433.177      17057.712      132405.15      40.453705      40.453705      80.907409          16000 
    233000   3201.6744      901982.52      1475.1534      901811.64      903983.62      900152.3       954.39823      4109.802       5047.2786      6621.1685      10590.368      17211.536      132197.25      40.43252       40.43252       80.86504           16000 
    234000   3190.035       902294.45      1481.778       901941.36      901072.22      903869.78      2698.4216     -51.661211      5616.9788      6597.0978      10551.689      17148.786      132194.49      40.432239      40.432239      80.864477          16000 
    235000   3190.4672      892300.09      1488.3968      892352.44      892907.67      891640.15      1815.4413     -4579.3103      1044.7976      6597.9916      10381.648      16979.639      132473.85      40.4607        40.4607        80.921399          16000 
    236000   3216.3697      902124.94      1495.019       900031.4       904351.74      901991.69      3451.9893     -879.03887     -1558.1249      6651.559       10517.708      17169.267      132212.68      40.434093      40.434093      80.868187          16000 
    237000   3197.5556      902710.16      1501.6422      902102.27      903134.33      902893.87     -811.79603     -1060.9668     -828.45096      6612.6508      10548.359      17161.01       132248.56      40.43775       40.43775       80.875501          16000 
    238000   3191.5211      893886.85      1508.2676      891016.77      896776.55      893867.24      2769.2333      3480.4296      1459.029       6600.1711      10412.693      17012.864      132442.5       40.457508      40.457508      80.915016          16000 
    239000   3218.3546      900330.72      1514.8919      900410.78      899319.6       901261.78     -687.24969      25.805321     -403.29583      6655.6637      10519.378      17175.042      132296.71      40.442657      40.442657      80.885314          16000 
    240000   3187.418       905202.62      1521.5204      907386.25      902827.07      905394.54     -974.10127     -914.9358      -123.84414      6591.6859      10567.905      17159.591      132095.53      40.422147      40.422147      80.844294          16000 
    241000   3235.4963      892925.92      1528.1472      891789.17      892478.73      894509.85     -15.963398     -2806.9624      146.14548      6691.1133      10404.42       17095.533      132474.06      40.460721      40.460721      80.921442          16000 
    242000   3207.627       901598.6       1534.7708      900541.09      901435.93      902818.78      1062.6047      2132.6643      643.06236      6633.4787      10551.354      17184.833      132237.43      40.436615      40.436615      80.873231          16000 
    243000   3193.7535      903050.93      1541.3965      901807.87      903067.46      904277.44      3225.5216     -536.55237     -1290.5108      6604.7879      10574.112      17178.9        132193.89      40.432178      40.432178      80.864355          16000 
    244000   3205.6249      897291.46      1548.0336      897382.59      897973.32      896518.48      1568.4529      2214.449      -1551.2852      6629.3382      10541.026      17170.365      132357.98      40.4489        40.4489        80.8978            16000 
    245000   3212.963       901262.68      1554.6572      902837.52      900822.12      900128.4      -2973.1391     -3579.6612     -2164.9964      6644.5137      10479.315      17123.829      132244.27      40.437313      40.437313      80.874626          16000 
    246000   3172.0676      898238.78      1561.2801      894785.5       901721.07      898209.77     -875.91672     -4559.2682     -1187.7734      6559.9407      10560.528      17120.468      132318.18      40.444845      40.444845      80.889691          16000 
    247000   3174.5301      891386.72      1567.9009      888299.7       892536.17      893324.3      -2637.9557     -5335.733       1574.2485      6565.0331      10379.294      16944.327      132514.31      40.464819      40.464819      80.929637          16000 
    248000   3220.0293      908435.95      1574.5183      911653.3       907649.58      906004.96     -4573.1337     -1298.1896      4385.8456      6659.1271      10602.245      17261.372      132128.98      40.425558      40.425558      80.851117          16000 
    249000   3190.1968      898352.34      1581.1407      900579.97      896255.98      898221.06     -2003.7595      3670.5345     -2611.6735      6597.4324      10482.349      17079.781      132330.23      40.446073      40.446073      80.892146          16000 
    250000   3198.3615      895083.67      1587.765       895734.06      895065.59      894451.34     -828.52588     -1305.419       443.31447      6614.3174      10549.244      17163.561      132411.59      40.45436       40.45436       80.90872           16000 
    251000   3200.7742      900886.04      1594.388       900260.09      901381.83      901016.21      978.95438     -2162.6887     -288.92184      6619.3069      10534.364      17153.671      132229.01      40.435758      40.435758      80.871516          16000 
    252000   3226.9852      900364.93      1601.0113      900006.43      901558.76      899529.6       1366.5114      4583.5978     -1323.8551      6673.5122      10539.781      17213.293      132290.67      40.442041      40.442041      80.884083          16000 
    253000   3200.3496      899464.01      1607.6346      899812.38      900139.43      898440.22     -1633.9694      729.75421     -2190.1579      6618.4288      10452.099      17070.528      132285.27      40.441492      40.441492      80.882984          16000 
    254000   3190.6417      903569.57      1614.2592      903444.11      900908.28      906356.32     -5651.8471     -3364.5976     -291.8967       6598.3526      10656.944      17255.297      132169.04      40.429644      40.429644      80.859287          16000 
    255000   3167.7915      896460.93      1620.8859      896479.51      893968.37      898934.91      2655.4186      377.79429     -828.50593      6551.0976      10469.54       17020.637      132288.32      40.441802      40.441802      80.883604          16000 
    256000   3200.2642      893069.43      1627.509       893095.62      892353.51      893759.16      310.30968      2722.2048     -5628.4162      6618.2521      10505.45       17123.702      132479.19      40.461243      40.461243      80.922487          16000 
    257000   3189.4657      901506.91      1634.1287      900659.03      900961.78      902899.91      1940.4809      3551.8478     -5346.48        6595.9204      10460.962      17056.882      132179.44      40.430704      40.430704      80.861408          16000 
    258000   3204.0943      900553         1640.753       901749.46      899439.28      900470.27     -1087.5874      2934.3917     -1482.4417      6626.1729      10527.882      17154.054      132283.16      40.441276      40.441276      80.882552          16000 
    259000   3193.9374      897665.31      1647.376       900895.89      896006.3       896093.75      2013.4763      760.82381      1535.9862      6605.1682      10495.634      17100.802      132344.12      40.447488      40.447488      80.894975          16000 
    260000   3221.2124      903720.9       1653.9961      905576.8       901856.32      903729.58     -2165.7478     -3574.5569     -1052.1174      6661.5737      10619.465      17281.038      132197.62      40.432558      40.432558      80.865115          16000 
    261000   3174.7244      897524.08      1660.6184      897620.31      896919.02      898032.91      3270.4404      2711.1471     -2214.2117      6565.435       10467.334      17032.769      132363.5       40.449462      40.449462      80.898924          16000 
    262000   3209.7682      899327.72      1667.2383      898899.69      899367.53      899715.93      1705.4301     -184.23718      1985.8219      6637.9067      10527.184      17165.091      132314.12      40.444431      40.444431      80.888863          16000 
    263000   3190.8868      909074.91      1673.8624      908065.08      910532.12      908627.55      608.71558      1452.5443      1582.4117      6598.8593      10655.569      17254.428      132038.51      40.41633       40.41633       80.832661          16000 
    264000   3192.6088      894118.07      1680.4866      896557.88      894014.28      891782.05      3095.5144      4736.6872     -234.76432      6602.4205      10474.648      17077.068      132433.93      40.456635      40.456635      80.913271          16000 
    265000   3181.1555      898814.93      1687.111       898875.25      897290.44      900279.1       434.20968     -3773.2861     -4023.4398      6578.7348      10545.805      17124.54       132266.57      40.439586      40.439586      80.879172          16000 
    266000   3212.4684      902997.32      1693.7356      902593.87      902135.77      904262.32     -1831.2378      32.991437      73.383164      6643.4908      10618.501      17261.992      132194.65      40.432255      40.432255      80.86451           16000 
    267000   3202.732       896579.79      1700.3538      898003         894504.44      897231.92      354.75931     -1049.0255     -2156.1075      6623.3558      10470.092      17093.448      132365.73      40.449689      40.449689      80.899378          16000 
    268000   3215.3203      901584.2       1706.9765      902186.07      900995         901571.54     -630.95852     -3665.8845     -2357.511       6649.3886      10575.799      17225.187      132298.47      40.442837      40.442837      80.885674          16000 
    269000   3208.8589      903438.76      1713.6006      903111.35      906051.71      901153.22      2982.6223     -2094.8001     -2051.3589      6636.0263      10561.738      17197.765      132180.75      40.430838      40.430838      80.861676          16000 
    270000   3197.2931      894513.75      1720.2218      893510.93      894287.87      895742.46     -4435.2591      149.39444      371.9013       6612.1077      10386.182      16998.29       132452.97      40.458574      40.458574      80.917147          16000 
    271000   3193.1813      902410.96      1726.8467      903753.27      903306.47      900173.12     -402.92943      1383.5969     -595.16837      6603.6044      10538.042      17141.646      132241.19      40.436999      40.436999      80.873999          16000 
    272000   3189.9317      902356.45      1733.4684      904071.02      901873.36      901124.97     -1383.4406     -1437.498      -3648.9428      6596.8843      10584.935      17181.82       132188.77      40.431655      40.431655      80.86331           16000 
    273000   3176.9662      896366.36      1740.0879      896395.31      896027.36      896676.42      2433.134      -489.21534      5314.8133      6570.0712      10480.62       17050.691      132354.86      40.448582      40.448582      80.897165          16000 
    274000   3182.1556      901998.97      1746.7106      902816.42      902925.72      900254.77     -2851.6401     -2879.6983     -1398.9848      6580.8029      10549.523      17130.325      132213.3       40.434156      40.434156      80.868311          16000 
    275000   3219.7583      901595.02      1753.3358      901888.85      901229.33      901666.88      2611.0139     -2616.0074     -666.05298      6658.5667      10607.321      17265.888      132244.92      40.437379      40.437379      80.874759          16000 
    276000   3190.4528      893495.01      1759.9595      895282.76      892660.1       892542.17      2787.6023     -1299.8401     -1623.1209      6597.9618      10380.911      16978.873      132498.5       40.463209      40.463209      80.926418          16000 
    277000   3264.0052      903369.47      1766.5862      904914.05      902604.84      902589.51     -2914.3635     -999.1962       387.54612      6750.0707      10560.047      17310.118      132243.56      40.43724       40.43724       80.87448           16000 
    278000   3212.0548      904602.33      1773.2105      904770.61      905057.54      903978.83      1676.4953     -1901.2921      6080.1176      6642.6356      10578.571      17221.207      132143.83      40.427073      40.427073      80.854147          16000 
    279000   3197.4364      897238.9       1779.8321      898233.17      897926.13      895557.41      2615.5675     -504.41312      2502.9069      6612.4042      10445.053      17057.457      132341.31      40.447202      40.447202      80.894404          16000 
    280000   3180.4423      898928.39      1786.4566      897920.78      900625.73      898238.66     -1023.2962     -3011.0821      5605.5926      6577.2598      10544.386      17121.646      132293.95      40.442377      40.442377      80.884753          16000 
    281000   3177.2191      906340.54      1793.0819      905381.82      906757.65      906882.15     -4335.4423     -3292.0384      2390.0314      6570.5941      10616.229      17186.823      132117.47      40.424385      40.424385      80.84877           16000 
    282000   3213.326       894945.59      1799.7061      895677.69      895996.18      893162.89     -561.24678      3388.2741      410.34557      6645.2643      10517.007      17162.271      132453.29      40.458606      40.458606      80.917212          16000 
    283000   3196.9152      899064.34      1806.3343      900623.79      898035         898534.22      6351.2093     -4536.4955      1153.8782      6611.3263      10504.725      17116.052      132299.57      40.442948      40.442948      80.885896          16000 
    284000   3226.7965      902772.41      1812.9589      904493.53      901324.66      902499.04     -1506.9568     -4136.6915      227.96181      6673.1218      10632.217      17305.339      132216.06      40.434437      40.434437      80.868874          16000 
    285000   3187.6386      897464.41      1819.5825      899589.2       897059.59      895744.43      1974.828       781.53012      184.07783      6592.142       10525.223      17117.365      132355.24      40.44862       40.44862       80.897241          16000 
[...]
   3930000   4390.6064      903184.86      6652.8221      929661.83      931676.31      848216.45      68105.077      540.56379     -1863.086       9079.9191      20829.189      29909.108      117441.23      39.084602      39.084602      76.879262          16000 
   3931000   4391.2405      896704.39      6659.9616      926197.14      923589.6       840326.43      72740.653      3860.8189      2311.5353      9081.2305      20740.427      29821.658      117595.02      39.101655      39.101655      76.912805          16000 
   3932000   4349.2844      899111.64      6667.1045      926006.65      927508.14      843820.12      69736.695      2079.1373      7198.5244      8994.464       20839.433      29833.897      117572.55      39.099165      39.099165      76.907907          16000 
   3933000   4386.2558      910032.73      6674.2507      939929.97      938792.34      851375.89      70752.162      1030.1828     -1503.6042      9070.9219      20922.217      29993.139      117289.13      39.067721      39.067721      76.846058          16000 
   3934000   4358.8497      892094.82      6681.3885      920803.59      921094.62      834386.26      68188.285      1242.7784     -30.275226      9014.2453      20736.026      29750.271      117719.24      39.115418      39.115418      76.939878          16000 
   3935000   4352.4156      904934.21      6688.5275      932177.65      931693.43      850931.55      68807.058     -1456.5754     -2757.0777      9000.9394      20890.979      29891.919      117466.04      39.087354      39.087354      76.884676          16000 
   3936000   4314.5139      896432.15      6695.6682      922046.82      926092.72      841156.91      68945.194      2501.8516      5346.6184      8922.5574      20866.804      29789.361      117645.54      39.107254      39.107254      76.923819          16000 
   3937000   4334.0511      900340.8       6702.8096      929072.04      929149.24      842801.12      69048.264     -506.48916      986.40874      8962.9609      20859.952      29822.913      117585.85      39.100638      39.100638      76.910805          16000 
   3938000   4372.8229      902292.59      6709.9458      929994.91      931834.75      845048.11      73304.844     -1332.3418     -1758.4396      9043.1423      20876.989      29920.131      117410.15      39.081154      39.081154      76.87248           16000 
   3939000   4338.3737      894669.55      6717.0848      921813.25      922328.99      839866.4       65683.788      3245.6253      2477.2692      8971.9001      20791.361      29763.262      117687.89      39.111945      39.111945      76.933047          16000 
   3940000   4336.3747      900832.45      6724.2217      927737.31      927359.01      847401.04      69560.62       4605.7991      1237.5469      8967.7663      20854.313      29822.079      117582.89      39.10031       39.10031       76.910161          16000 
   3941000   4336.1213      895927.34      6731.3649      924869.54      920348.59      842563.88      67977.089      283.36897      4437.0052      8967.2423      20820.058      29787.301      117643.04      39.106977      39.106977      76.923274          16000 
   3942000   4333.1858      897613.56      6738.5046      927732.68      923260.14      841847.84      68217.7        1237.5361      249.60675      8961.1715      20836.611      29797.782      117623.34      39.104793      39.104793      76.918978          16000 
   3943000   4354.4585      901046.13      6745.6424      928309.45      928174.02      846654.92      65412.886      4868.702       213.40976      9005.1642      20849.055      29854.219      117522.8       39.093648      39.093648      76.897057          16000 
   3944000   4366.0543      899221.43      6752.78        927953.07      931360.21      838351.01      72452.826     -141.3286      -2817.2034      9029.1446      20774.432      29803.577      117610.84      39.103408      39.103408      76.916254          16000 
   3945000   4342.6737      905998.46      6759.9142      935085.01      936760.56      846149.8       72872.931     -54.934134     -6468.4439      8980.7928      20899.921      29880.714      117472.62      39.088084      39.088084      76.886112          16000 
   3946000   4335.571       897918.09      6767.0571      923746.96      924238.84      845768.46      69411.309     -6418.8841      4944.8247      8966.1041      20841.701      29807.805      117601.85      39.102411      39.102411      76.914294          16000 
   3947000   4355.8606      900413.12      6774.1993      928152.75      929390.9       843695.71      70054.105      3738.0822      4597.8785      9008.0638      20832.734      29840.798      117542.41      39.095823      39.095823      76.901334          16000 
   3948000   4296.8725      893881.03      6781.3388      916714.96      920216.85      844711.29      66935.968      2479.9232      821.17514      8886.0744      20855.757      29741.832      117718.15      39.115298      39.115298      76.939641          16000 
   3949000   4320.9442      908028.7       6788.4768      935048.5       932989.74      856047.88      70076.796     -1774.4671     -1068.7489      8935.8554      20979.416      29915.272      117409.48      39.081079      39.081079      76.872333          16000 
   3950000   4310.6212      896097.9       6795.6178      924678.52      926651.27      836963.9       71410.816      3048.7134      2708.661       8914.5071      20834.794      29749.301      117703.89      39.113718      39.113718      76.936535          16000 
   3951000   4354.722       899838.6       6802.7594      924203.87      929844.02      845467.92      67008.561      4181.0206      1778.6997      9005.7091      20821.484      29827.193      117564.44      39.098266      39.098266      76.906139          16000 
   3952000   4350.8402      899674.78      6809.8985      922656.54      926491.87      849875.94      66596.657     -1375.8286     -7609.6122      8997.6814      20834.612      29832.293      117554.57      39.097171      39.097171      76.903986          16000 
   3953000   4246.2364      902723.48      6817.0399      929083.41      928041.87      851045.15      69398.384      1582.0876     -3188.5532      8781.3572      21016.406      29797.763      117615.92      39.103971      39.103971      76.917362          16000 
   3954000   4338.3733      899249.96      6824.1817      926502.23      925376.49      845871.18      68066.911      1181.718       7242.4522      8971.8993      20833.321      29805.22       117602.2       39.102451      39.102451      76.914371          16000 
   3955000   4342.9589      905217.31      6831.3215      929167.67      935031.58      851452.69      69413.155      1704.6742      361.85921      8981.3825      20913.319      29894.701      117441.26      39.084605      39.084605      76.879269          16000 
   3956000   4312.0307      897014.61      6838.4602      921406.57      920659.99      848977.26      69707.773      4464.6405     -5682.1363      8917.422       20819.446      29736.868      117721.04      39.115618      39.115618      76.94027           16000 
   3957000   4330.9636      908582.51      6845.5998      934500.65      936840.66      854406.2       73985.693      2018.8765      3243.7213      8956.576       20996.611      29953.187      117333.74      39.072674      39.072674      76.855801          16000 
   3958000   4306.4563      896093.5       6852.7386      920221.13      921345.2       846714.17      68478.257     -2013.6107      1299.5997      8905.894       20885.548      29791.442      117619.92      39.104414      39.104414      76.918233          16000 
   3959000   4341.6552      900252.86      6859.877       929070.98      925695.75      845991.83      69790.683     -2935.2797     -3236.3924      8978.6865      20814.57       29793.257      117612.95      39.103642      39.103642      76.916714          16000 
   3960000   4312.0226      902417.93      6867.0155      926646.16      927950.93      852656.7       70984.402     -6013.8178      1456.7484      8917.4052      20904.675      29822.08       117561.52      39.097941      39.097941      76.905501          16000 
   3961000   4343.7906      897958.45      6874.1538      921348.81      922594.7       849931.86      70308.436     -1577.199      -371.46625      8983.1027      20836.978      29820.081      117564.22      39.098241      39.098241      76.90609           16000 
   3962000   4322.1634      898415.07      6881.2955      926382.56      925084.22      843778.43      66409.29       570.94886      578.39924      8938.3769      20860.683      29799.06       117601.03      39.102322      39.102322      76.914117          16000 
   3963000   4315.2218      897966.5       6888.4364      924133.59      921168         848597.91      67080.886      3813.1994      1813.9176      8924.0213      20841.746      29765.767      117657.93      39.108626      39.108626      76.926518          16000 
   3964000   4356.3638      904450.91      6895.5802      934412.55      928111.49      850828.69      73309.14      -3319.6747     -2992.2217      9009.1044      20870.868      29879.972      117453.88      39.086005      39.086005      76.882022          16000 
   3965000   4310.8192      895540.59      6902.7222      921169.36      923360.51      842091.89      70382.106      3669.683      -2411.3986      8914.9165      20856.974      29771.891      117645.39      39.107237      39.107237      76.923785          16000 
   3966000   4298.6943      901376.27      6909.8639      929813.74      926222.37      848092.72      67961.457      2432.9521      3248.2043      8889.8419      20944.155      29833.997      117532.97      39.094776      39.094776      76.899276          16000 
   3967000   4369.9304      896328.37      6917.0056      921931.2       924649.7       842404.2       74432.968     -5416.9228      2867.9381      9037.1606      20773.889      29811.05       117573.42      39.099261      39.099261      76.908096          16000 
   3968000   4329.7832      898787.86      6924.1476      923315.08      926769.2       846279.3       68239.088     -6649.7073     -1839.369       8954.1347      20818.537      29772.671      117640.9       39.106739      39.106739      76.922806          16000 
   3969000   4320.505       909861.02      6931.283       936942.98      936746.67      855893.41      70240.61      -2801.3452      1011.4878      8934.9471      20991.128      29926.075      117366.52      39.076312      39.076312      76.862956          16000 
   3970000   4294.6775      893673.92      6938.4186      918345.76      923247.08      839428.92      65269.951      2556.5999      1963.1286      8881.535       20853.356      29734.891      117706         39.113951      39.113951      76.936993          16000 
   3971000   4337.3794      903475.55      6945.5549      929950.68      927834.65      852641.33      67197.864      5716.055      -2840.1927      8969.844       20851.122      29820.966      117552.09      39.096896      39.096896      76.903446          16000 
   3972000   4318.5394      899487.42      6952.6902      925709.39      925544.96      847207.92      69510.947     -2846.3342     -2802.1452      8930.8822      20867.512      29798.395      117591.89      39.101307      39.101307      76.912122          16000 
   3973000   4326.0834      899870.69      6959.8273      927739.64      926421.1       845451.33      68634.906     -2611.844       716.01097      8946.4835      20882.871      29829.355      117536.54      39.095172      39.095172      76.900053          16000 
   3974000   4348.8158      899135.44      6966.963       921984.95      928145.99      847275.37      69742.923      1155.1075      7457.2535      8993.4947      20801.357      29794.852      117598.2       39.102008      39.102008      76.913499          16000 
   3975000   4349.4069      908003.58      6974.101       935019.84      931189.53      857801.36      68933.441      6673.9123     -252.47834      8994.7172      20918.35       29913.068      117387.04      39.078589      39.078589      76.867435          16000 
   3976000   4309.4822      892867.34      6981.2387      917655.51      918636.11      842310.38      67856.526      2361.8045     -2684.3787      8912.1517      20808.726      29720.878      117728.27      39.116419      39.116419      76.941846          16000 
   3977000   4362.2689      908014.57      6988.3761      939243.43      932006.68      852793.6       69189.787      58.096646     -2418.7439      9021.3163      20923.741      29945.057      117327.51      39.071982      39.071982      76.854439          16000 
   3978000   4277.3636      893195.92      6995.512       919926.03      919657.18      840004.55      67155.02      -1643.278       1484.4925      8845.7293      20888.713      29734.442      117701.42      39.113444      39.113444      76.935994          16000 
   3979000   4362.5147      907914.82      7002.6489      937428.23      935556.86      850759.37      71584.703     -1159.252      -802.16837      9021.8246      20921.784      29943.609      117326.78      39.071902      39.071902      76.854281          16000 
   3980000   4362.0795      896991.83      7009.7851      924410.69      929285.47      837279.33      69884.122     -3320.9469     -1593.2039      9020.9246      20766.803      29787.728      117603.24      39.102566      39.102566      76.914597          16000 
   3981000   4341.253       901054.91      7016.9197      925994.14      929397.99      847772.58      68029.587     -3819.1802      4663.2563      8977.8547      20840.928      29818.783      117546.66      39.096294      39.096294      76.902261          16000 
   3982000   4302.5172      903950.42      7024.0557      932493.94      932470.78      846886.54      70128.852      235.47048     -932.85378      8897.7479      20938.931      29836.679      117513.27      39.092592      39.092592      76.894979          16000 
   3983000   4329.0357      901110.16      7031.1932      929767.34      922466.34      851096.8       66216.113      2205.075       1484.7912      8952.589       20847.875      29800.464      117576.94      39.099651      39.099651      76.908863          16000 
   3984000   4331.3258      894975.7       7038.3284      925382.53      917849.02      841695.56      65460.49      -4534.6416     -4835.8254      8957.325       20781.707      29739.032      117686.52      39.111794      39.111794      76.932749          16000 
   3985000   4335.916       909992.34      7045.466       935599.73      940552.36      853824.93      67171.014      1797.118       2627.2991      8966.8176      20948.001      29914.818      117373.41      39.077077      39.077077      76.864462          16000 
   3986000   4341.7029      895801.16      7052.6049      924507.56      920830.96      842064.95      72665.617      6393.8267     -138.66085      8978.7852      20768.267      29747.052      117671.39      39.110118      39.110118      76.929453          16000 
   3987000   4359.7384      902289.19      7059.7424      927834.43      928312.3       850720.84      69099.845      136.2393      -1475.6566      9016.0831      20830.651      29846.734      117492.66      39.090307      39.090307      76.890483          16000 
   3988000   4359.7836      897679.53      7066.8808      925080.17      923845.96      844112.47      70533.387     -2470.2993     -6209.1271      9016.1765      20779.124      29795.3        117584.14      39.100449      39.100449      76.910434          16000 
   3989000   4316.5196      906002.68      7074.0181      933076.74      937566.27      847365.04      67925.002     -5537.7177      4099.5209      8926.7051      20956.965      29883.67       117426.69      39.082988      39.082988      76.876089          16000 
   3990000   4351.7343      897553.9       7081.1577      927729.98      927781.11      837150.61      70529.507      5427.8947      327.02445      8999.5305      20806.818      29806.348      117563.81      39.098195      39.098195      76.906001          16000 
   3991000   4293.8633      907678.78      7088.2976      931855.56      935697.17      855483.61      70825.976      6179.174      -3983.1031      8879.8513      20971.855      29851.706      117482.84      39.089217      39.089217      76.88834           16000 
   3992000   4341.3562      900617.86      7095.4391      925280.41      930048.1       846525.07      68666.732      1351.7469      4170.3394      8978.0682      20832.94       29811.008      117553.98      39.097105      39.097105      76.903856          16000 
   3993000   4349.0431      900046.37      7102.5775      926922.32      929115.35      844101.43      68991.404      565.65769      8979.5493      8993.965       20824.389      29818.354      117540.46      39.095607      39.095607      76.90091           16000 
   3994000   4336.6894      901239.64      7109.7154      933586.23      924018.57      846114.11      67605.504      1176.0367      402.97678      8968.417       20815.365      29783.782      117600.89      39.102306      39.102306      76.914086          16000 
   3995000   4337.2858      900749.82      7116.8564      925478.5       926874.36      849896.62      65149.04      -540.96299     -693.96862      8969.6505      20821.741      29791.391      117586.6       39.100721      39.100721      76.910969          16000 
   3996000   4299.6489      907261.98      7123.9962      934830.46      933437.38      853518.11      68337.354      1170.5667      1836.0499      8891.816       20991.781      29883.597      117421.78      39.082444      39.082444      76.875018          16000 
   3997000   4340.2891      889312.25      7131.1343      918080.54      917386.68      832469.55      65998.168     -1252.5294      7210.2595      8975.8613      20734.812      29710.673      117729.81      39.116589      39.116589      76.942181          16000 
   3998000   4364.282       913511.87      7138.2721      942935.12      940425.18      857175.32      70193.545     -1997.4734     -2885.8386      9025.4795      20958.226      29983.705      117244.46      39.062761      39.062761      76.836301          16000 
   3999000   4327.8865      893833.15      7145.4099      920133.42      922586.89      838779.14      68224.017      2263.5777     -2325.7306      8950.2123      20781.148      29731.36       117690.93      39.112282      39.112282      76.93371           16000 
   4000000   4366.3111      901044.06      7152.5538      926092.71      932993.21      844046.27      68732.521      3606.9589      5845.8805      9029.6758      20829.583      29859.259      117462.03      39.08691       39.08691       76.883802          16000 
Loop time of 7152.55 on 8 procs for 1000000 steps with 16000 atoms

Performance: 6.040 ns/day, 3.974 hours/ns, 139.810 timesteps/s
58.3% CPU use with 1 MPI tasks x 8 OpenMP threads

MPI task timing breakdown:
Section |  min time  |  avg time  |  max time  |%varavg| %total
---------------------------------------------------------------
Pair    | 6857.1     | 6857.1     | 6857.1     |   0.0 | 95.87
Neigh   | 14.154     | 14.154     | 14.154     |   0.0 |  0.20
Comm    | 42.182     | 42.182     | 42.182     |   0.0 |  0.59
Output  | 5.7366     | 5.7366     | 5.7366     |   0.0 |  0.08
Modify  | 208.21     | 208.21     | 208.21     |   0.0 |  2.91
Other   |            | 25.18      |            |       |  0.35

Nlocal:          16000 ave       16000 max       16000 min
Histogram: 1 0 0 0 0 0 0 0 0 0
Nghost:          15651 ave       15651 max       15651 min
Histogram: 1 0 0 0 0 0 0 0 0 0
Neighs:              0 ave           0 max           0 min
Histogram: 1 0 0 0 0 0 0 0 0 0
FullNghs:  1.95313e+06 ave 1.95313e+06 max 1.95313e+06 min
Histogram: 1 0 0 0 0 0 0 0 0 0

Total # of neighbors = 1953128
Ave neighs/atom = 122.0705
Neighbor list builds = 33707
Dangerous builds = 0
Total wall time: 7:53:37
