
atom_style atomic
units metal
boundary p p p
#atom_modify sort 0 0.0
newton on

read_data data.lammps
Reading data file ...
  triclinic box = (0 0 0) to (4.3790145 4.3790145 4.3790145) with tilt (-0 0 0)
  1 by 1 by 1 MPI processor grid
  reading atoms ...
  8 atoms
  read_data CPU = 0.001 seconds
replicate 10 10 20
Replicating atoms ...
  triclinic box = (0 0 0) to (43.790145 43.790145 87.58029) with tilt (-0 0 0)
  1 by 1 by 1 MPI processor grid
  16000 atoms
  replicate CPU = 0.023 seconds

### interactions

pair_style flare
pair_coeff * * lmp.flare
Reading potential file lmp.flare with DATE: Thu

# compute unc all flare/std/atom L_inv_lmp.flare sparse_desc_lmp.flare
# compute MaxUnc all reduce max c_unc

mass 1 12.011000
mass 2 28.085000

thermo_style custom step temp press cpu pxx pyy pzz pxy pxz pyz ke pe etotal vol lx ly lz atoms    #c_MaxUnc
thermo 1000
timestep 0.0005
restart 100000 restart_*.dat

#################### Equilibrate at P and T_es ##############################
velocity all create $T 41928459 rot yes dist gaussian
velocity all create 3600 41928459 rot yes dist gaussian
fix mom all momentum 1000 linear 1 1 1 angular

fix 1 all npt temp $T $T $(100.0*dt) iso $P $P $(1000.0*dt)
fix 1 all npt temp 3600 $T $(100.0*dt) iso $P $P $(1000.0*dt)
fix 1 all npt temp 3600 3600 $(100.0*dt) iso $P $P $(1000.0*dt)
fix 1 all npt temp 3600 3600 0.050000000000000002776 iso $P $P $(1000.0*dt)
fix 1 all npt temp 3600 3600 0.050000000000000002776 iso 900000 $P $(1000.0*dt)
fix 1 all npt temp 3600 3600 0.050000000000000002776 iso 900000 900000 $(1000.0*dt)
fix 1 all npt temp 3600 3600 0.050000000000000002776 iso 900000 900000 0.5
dump 1 all custom 1000 1equil.bin id type x y z vx vy vz
run   10000 # report performance
Neighbor list info ...
  update every 1 steps, delay 10 steps, check yes
  max neighbors/atom: 2000, page size: 100000
  master list distance cutoff = 6
  ghost atom cutoff = 6
  binsize = 6, bins = 8 8 15
  1 neighbor lists, perpetual/occasional/extra = 1 0 0
  (1) pair flare/kk, perpetual
      attributes: full, newton on, kokkos_device
      pair build: full/bin/kk/device
      stencil: full/bin/3d
      bin: kk/device
Per MPI rank memory allocation (min/avg/max) = 15.9 | 15.9 | 15.9 Mbytes
   Step          Temp          Press           CPU            Pxx            Pyy            Pzz            Pxy            Pxz            Pyz           KinEng         PotEng         TotEng         Volume           Lx             Ly             Lz          Atoms   
         0   3600           66059.554      0              65701.03       66222.995      66254.636     -499.5503       224.99675     -564.80851      7444.919      -4109.4047      3335.5143      167941.93      43.790145      43.790145      87.58029           16000 
      1000   3708.9073      901832.65      6.5841911      902946.22      897834.65      904717.08     -794.19592     -2735.7742     -779.23911      7670.143       11366.162      19036.305      132968.48      40.510994      40.510994      81.021989          16000 
      2000   3555.912       899640.92      13.17015       897283.41      899562.09      902077.27     -2189.9741     -250.54705      6615.3169      7353.7436      11185.406      18539.149      132691.19      40.482814      40.482814      80.965628          16000 
      3000   3642.003       897737.03      19.756744      897193.7       896192.46      899824.91      548.56423     -1546.9345     -3441.8643      7531.7826      11347.262      18879.045      132767.51      40.490575      40.490575      80.981149          16000 
      4000   3602.4414      902157.03      26.340871      900855.77      903935.93      901679.4       4603.9624     -1221.7076      3637.466       7449.968       11268.69       18718.658      132595.81      40.473112      40.473112      80.946224          16000 
      5000   3654.4177      898720.68      32.924027      898784.16      896161.14      901216.76      1304.3108     -5.7260558     -2197.1951      7557.4566      11300.22       18857.677      132702.17      40.483931      40.483931      80.967863          16000 
      6000   3602.5982      899893.1       39.508808      903082.77      899718.46      896878.08     -3270.2827      4498.4039      1678.9533      7450.2922      11320.203      18770.495      132638.68      40.477474      40.477474      80.954947          16000 
      7000   3598.0272      899253.48      46.093453      897867.23      899044.93      900848.29      1404.5762     -660.70783     -2561.7179      7440.8392      11387.274      18828.113      132660.53      40.479696      40.479696      80.959392          16000 
      8000   3618.3105      901882.1       52.677984      899420.35      903297.63      902928.31     -930.16925     -2399.0007     -313.75628      7482.7858      11338.046      18820.832      132584.54      40.471965      40.471965      80.94393           16000 
      9000   3586.6794      901652.53      59.262396      901475.45      900667.08      902815.05      637.80387     -1367.8984      60.688844      7417.3715      11383.687      18801.058      132632.35      40.47683       40.47683       80.95366           16000 
     10000   3601.8389      898836.6       65.846001      898417.38      901098.65      896993.76     -422.69664     -3742.6012      4466.5696      7448.7218      11376.014      18824.735      132636.79      40.477281      40.477281      80.954563          16000 
Loop time of 65.846 on 8 procs for 10000 steps with 16000 atoms

Performance: 6.561 ns/day, 3.658 hours/ns, 151.869 timesteps/s
61.0% CPU use with 1 MPI tasks x 8 OpenMP threads

MPI task timing breakdown:
Section |  min time  |  avg time  |  max time  |%varavg| %total
---------------------------------------------------------------
Pair    | 62.867     | 62.867     | 62.867     |   0.0 | 95.48
Neigh   | 0.098155   | 0.098155   | 0.098155   |   0.0 |  0.15
Comm    | 0.3453     | 0.3453     | 0.3453     |   0.0 |  0.52
Output  | 0.013876   | 0.013876   | 0.013876   |   0.0 |  0.02
Modify  | 2.2595     | 2.2595     | 2.2595     |   0.0 |  3.43
Other   |            | 0.2626     |            |       |  0.40

Nlocal:          16000 ave       16000 max       16000 min
Histogram: 1 0 0 0 0 0 0 0 0 0
Nghost:          14646 ave       14646 max       14646 min
Histogram: 1 0 0 0 0 0 0 0 0 0
Neighs:              0 ave           0 max           0 min
Histogram: 1 0 0 0 0 0 0 0 0 0
FullNghs:  1.75663e+06 ave 1.75663e+06 max 1.75663e+06 min
Histogram: 1 0 0 0 0 0 0 0 0 0

Total # of neighbors = 1756626
Ave neighs/atom = 109.78912
Neighbor list builds = 238
Dangerous builds = 0
run  990000
Per MPI rank memory allocation (min/avg/max) = 16.45 | 16.45 | 16.45 Mbytes
   Step          Temp          Press           CPU            Pxx            Pyy            Pzz            Pxy            Pxz            Pyz           KinEng         PotEng         TotEng         Volume           Lx             Ly             Lz          Atoms   
     10000   3601.8389      898836.6       0              898417.38      901098.65      896993.76     -422.69664     -3742.6012      4466.5696      7448.7218      11376.014      18824.735      132636.79      40.477281      40.477281      80.954563          16000 
     11000   3613.667       897603.12      6.5824253      895586.26      897141.99      900081.11     -1078.0397      4154.6406     -2239.7854      7473.1829      11329.855      18803.038      132640         40.477607      40.477607      80.955215          16000 
     12000   3627.853       903985.68      13.16539       901322.03      904671.57      905963.44      1217.0748     -506.9123       5964.372       7502.52        11416.157      18918.677      132525.87      40.465994      40.465994      80.931989          16000 
     13000   3565.0819      893668.96      19.750686      892783.75      891695.02      896528.12      1996.1167     -422.17519     -1711.1854      7372.7073      11361.393      18734.1        132691.84      40.48288       40.48288       80.965761          16000 
     14000   3579.0883      902764.21      26.33473       901499.19      905274.82      901518.63      1557.9914      1336.167       4122.5269      7401.6729      11440.891      18842.564      132561.37      40.469607      40.469607      80.939215          16000 
     15000   3595.5369      900268.93      32.919954      901248.38      899550.59      900007.82      3620.1679     -3792.0089      897.43997      7435.6892      11383.47       18819.159      132627.51      40.476337      40.476337      80.952674          16000 
     16000   3617.5167      899153.72      39.503344      898007.02      900359.25      899094.88     -2492.3297     -2691.9446     -2260.0465      7481.1442      11430.825      18911.969      132629.06      40.476495      40.476495      80.95299           16000 
     17000   3557.68        895167.89      46.086195      894283.96      895958.1       895261.59      1425.7        -937.25953      5039.0311      7357.3998      11179.23       18536.63       132669.15      40.480572      40.480572      80.961145          16000 
     18000   3609.9234      904333.46      52.668437      903835.58      904057.94      905106.86      578.43913      1334.9436      2831.1316      7465.4409      11435.953      18901.394      132495.64      40.462918      40.462918      80.925836          16000 
     19000   3559.3808      896058.25      59.251724      896481.03      898310.54      893383.16     -689.76019      2657.1222     -2814.9906      7360.9172      11335.184      18696.101      132709.58      40.484684      40.484684      80.969368          16000 
     20000   3638.5146      903080.68      65.833393      902980.44      902348.89      903912.7       3321.8783      682.52601     -4357.4789      7524.5685      11382.192      18906.76       132574.03      40.470897      40.470897      80.941793          16000 
     21000   3585.4911      898670.63      72.418688      897949.18      896815.79      901246.92     -4275.1986     -2847.7062     -678.67845      7414.9141      11327.637      18742.552      132675.37      40.481206      40.481206      80.962412          16000 
     22000   3653.3565      905436.37      79.000492      904033.25      905381.4       906894.45     -2890.0434     -64.463951     -622.14417      7555.2619      11448.421      19003.683      132524.22      40.465827      40.465827      80.931654          16000 
     23000   3591.7365      897439.68      85.584509      897871.49      898347.01      896100.54      693.83102     -6106.4239     -889.93164      7427.8298      11347.306      18775.136      132705.09      40.484228      40.484228      80.968457          16000 
     24000   3600.2745      903421.51      92.16605       904831.57      903702.12      901730.84      1162.1647      2493.2019      885.3893       7445.4867      11439.37       18884.856      132553.98      40.468856      40.468856      80.937713          16000 
     25000   3598.7845      894720.92      98.750058      896298.66      894939.36      892924.74     -2196.0992     -215.30259      1966.8244      7442.4053      11289.456      18731.861      132770.72      40.490901      40.490901      80.981801          16000 
     26000   3649.8137      903908.14      105.33393      901848.02      904289.15      905587.26      3572.4577     -13.213737      1573.8041      7547.9353      11376.78       18924.715      132518.69      40.465264      40.465264      80.930529          16000 
     27000   3589.0097      893725.37      111.9198       893156.99      890317.75      897701.36     -374.91642     -703.58336     -5036.1583      7422.1908      11185.316      18607.506      132785.3       40.492383      40.492383      80.984765          16000 
     28000   3605.1862      904447.15      118.50142      904538.57      904879.58      903923.29      750.64894      885.29014      132.50677      7455.6443      11433.932      18889.576      132562.15      40.469688      40.469688      80.939375          16000 
     29000   3641.2632      896395.88      125.08485      895800.16      894894.85      898492.63      510.59647      2055.2615     -5156.2122      7530.2526      11198.329      18728.582      132716.37      40.485375      40.485375      80.970749          16000 
     30000   3622.5498      904548.98      131.66675      905165.19      903666.08      904815.67      218.87312      2994.8133      5228.6734      7491.5528      11414.717      18906.27       132523.34      40.465738      40.465738      80.931476          16000 
     31000   3604.5906      896134.31      138.2467       895027.2       896812.67      896563.06      730.78322     -1035.1643     -2249.964       7454.4125      11308.504      18762.916      132764.93      40.490312      40.490312      80.980624          16000 
     32000   3634.1747      902981         144.82591      902141.74      904753.16      902048.09     -517.06677      5740.3801      551.66705      7515.5934      11373.914      18889.507      132537.4       40.467169      40.467169      80.934338          16000 
     33000   3594.0655      896326.23      151.40895      892945.07      897008.15      899025.47     -1645.8609      3464.4462      299.1007       7432.6462      11416.649      18849.295      132708.08      40.484532      40.484532      80.969063          16000 
     34000   3552.1909      903959.29      157.98958      906246.62      902942.99      902688.26      3557.5581      301.18529      896.44649      7346.0483      11475.778      18821.826      132475.58      40.460875      40.460875      80.921751          16000 
     35000   3627.0881      897228.93      164.57111      899080.41      897658.49      894947.88     -1862.138       1240.1201      2312.9148      7500.9382      11354.963      18855.901      132680.17      40.481694      40.481694      80.963387          16000 
     36000   3547.7836      902719.08      171.15441      902060.06      903692.71      902404.47     -3219.0192      2089.4408      948.88682      7336.9337      11407.103      18744.037      132495.41      40.462895      40.462895      80.925789          16000 
     37000   3593.8135      897254.12      178.16633      896757.54      897307.45      897697.37      1638.9654      2986.0019      5436.5233      7432.1252      11347.688      18779.813      132682.84      40.481965      40.481965      80.96393           16000 
     38000   3594.9707      900738.25      184.74945      900344.64      900101.28      901768.83     -1563.5953      4272.1512      4543.6601      7434.5183      11481.261      18915.78       132644.98      40.478115      40.478115      80.956229          16000 
     39000   3592.8071      900820.86      191.3341       900875.6       902156.04      899430.94      2300.5312     -3465.9446      250.02245      7430.0438      11349.267      18779.31       132673.45      40.48101       40.48101       80.962021          16000 
     40000   3609.4765      900512.25      197.91565      900979.47      900932.15      899625.15     -1001.7211      2594.6519      787.61414      7464.5168      11409.709      18874.226      132600.24      40.473563      40.473563      80.947126          16000 
     41000   3603.8167      896075.8       204.49783      896125.39      896043.35      896058.66      1169.5996     -1011.8947     -2242.1393      7452.8122      11363.628      18816.44       132676.58      40.481328      40.481328      80.962656          16000 
     42000   3599.8933      907710.92      213.53269      910932.99      906592.15      905607.62      4481.4052     -3713.0393     -1826.6432      7444.6983      11504.826      18949.524      132428.46      40.456078      40.456078      80.912156          16000 
     43000   3589.5511      889382.61      220.12585      888110.02      890757.75      889280.07      1434.7714      2447.0515      842.00744      7423.3103      11219.51       18642.82       132913.21      40.505381      40.505381      81.010762          16000 
     44000   3618.2499      904396.81      226.70877      905857.15      903541.86      903791.43      233.56993     -3724.9246     -4514.007       7482.6604      11443.594      18926.255      132501.58      40.463523      40.463523      80.927045          16000 
     45000   3562.1253      898784.85      233.29114      896938.86      899255.54      900160.15     -2354.516       1267.628      -1159.1257      7366.5929      11340.79       18707.383      132633.64      40.476961      40.476961      80.953922          16000 
     46000   3599.5375      900965.12      239.87257      901112.49      902335.53      899447.36      1150.7624      2135.4089      2998.1451      7443.9626      11436.264      18880.226      132606.04      40.474153      40.474153      80.948306          16000 
     47000   3579.8779      899729.56      246.45451      899256.9       900730.98      899200.8      -1065.5191     -18.05607      -2607.3489      7403.3058      11413.92       18817.225      132640.61      40.47767       40.47767       80.955339          16000 
     48000   3553.1595      902549.79      253.03588      903358.23      902311.06      901980.09     -3343.7688     -955.84893     -1265.8475      7348.0514      11418.269      18766.321      132546.37      40.468082      40.468082      80.936163          16000 
     49000   3654.1232      897324.49      259.6154       896343.46      898845         896785.02      390.32205      2487.4896     -6358.9372      7556.8476      11255.136      18811.984      132690.38      40.482732      40.482732      80.965464          16000 
     50000   3575.8916      904377.73      266.19763      902665.98      903933.87      906533.33     -1079.9682      4417.1499     -2342.5191      7395.062       11393.317      18788.379      132477.54      40.461075      40.461075      80.922151          16000 
     51000   3599.8221      893107.27      272.77897      892080.86      894007.95      893232.99     -2934.8688     -614.56189     -3937.0073      7444.5512      11359.221      18803.772      132794.09      40.493276      40.493276      80.986553          16000 
     52000   3582.4694      904392.48      279.3598       901462.43      905187.3       906527.71     -293.7998      -524.17527     -2725.0137      7408.6652      11411.875      18820.54       132520.55      40.465453      40.465453      80.930906          16000 
     53000   3626.8322      897141.63      285.94107      896046.08      899161.49      896217.33      2272.6523      1777.6378      5199.8916      7500.4089      11420.351      18920.76       132698.81      40.483589      40.483589      80.967178          16000 
     54000   3598.3055      901673.56      292.52079      901539.88      903057.67      900423.13     -923.29174     -1084.4136      1851.6722      7441.4148      11408.579      18849.994      132514.14      40.464801      40.464801      80.929601          16000 
     55000   3597.449       897608.61      299.10211      895780.32      898858.96      898186.54     -51.410396     -1898.1694     -919.53891      7439.6434      11295.911      18735.554      132665.85      40.480237      40.480237      80.960475          16000 
     56000   3591.7286      903003.49      305.68303      900845.29      906351.17      901814.03      2701.5664     -1686.3586     -3020.5997      7427.8136      11382.472      18810.285      132491.96      40.462543      40.462543      80.925086          16000 
     57000   3658.8693      895784.06      312.26588      893736.26      897631.63      895984.27     -506.38032     -615.20813      2484.8407      7566.6627      11303.359      18870.021      132728.06      40.486564      40.486564      80.973128          16000 
     58000   3595.3226      901110.22      318.84754      897278.62      903669.22      902382.83      1718.2102      3088.2813     -1685.4486      7435.246       11464.923      18900.169      132576.4       40.471137      40.471137      80.942274          16000 
     59000   3590.4453      898324.24      325.43036      896695.44      897960.71      900316.57      529.64026      313.99761     -722.89413      7425.1596      11290.677      18715.836      132646.21      40.478239      40.478239      80.956478          16000 
     60000   3552.694       906511.31      332.01146      905685.01      907290.31      906558.6       2990.3029     -2300.3221     -3323.8693      7347.0887      11518.198      18865.287      132441.35      40.457391      40.457391      80.914781          16000 
     61000   3596.293       895038.55      338.5933       894870.85      895899.88      894344.9      -1481.007      -1093.7058      3015.2051      7437.2529      11320.393      18757.646      132734.93      40.487262      40.487262      80.974524          16000 
     62000   3615.1937      902865.63      345.21138      904645.89      901773.9       902177.08     -3310.6111      2697.3075     -1081.4803      7476.3402      11511.96       18988.3        132537.4       40.467169      40.467169      80.934337          16000 
     63000   3569.4205      897957.07      351.83729      897803.24      898026.57      898041.4      -56.252782     -1536.1853     -2588.4757      7381.6796      11349.107      18730.787      132646.49      40.478268      40.478268      80.956536          16000 
     64000   3585.9521      902858.87      358.45222      904305.41      903878.36      900392.82      3228.9496      3387.731      -5231.6917      7415.8675      11497.455      18913.322      132550.61      40.468513      40.468513      80.937026          16000 
     65000   3559.1765      893225.48      365.04654      894889.38      893200.54      891586.52     -1944.1724      585.83653     -1195.3807      7360.4948      11261.489      18621.984      132778.9       40.491732      40.491732      80.983465          16000 
     66000   3608.9203      910283.92      371.64211      910003.89      910937.9       909909.98     -3343.2186     -1498.5493     -94.734781      7463.3664      11543.961      19007.328      132298.18      40.442808      40.442808      80.885615          16000 
     67000   3615.4959      894092.5       378.23793      892719.59      897374.42      892183.49      800.90125     -383.97639     -1701.7778      7476.965       11338.66       18815.625      132788.31      40.492689      40.492689      80.985379          16000 
     68000   3584.1436      902295.86      384.83203      900745.74      900608.77      905533.08      1861.0359     -1669.6453     -4256.1355      7412.1274      11428.924      18841.051      132515.4       40.46493       40.46493       80.929859          16000 
     69000   3620.8946      897966.69      391.42697      896585.82      898979.54      898334.71     -5170.76       -1885.1231      1432.0533      7488.1297      11395.911      18884.041      132675.22      40.48119       40.48119       80.96238           16000 
     70000   3582.7904      904410.47      398.02379      902122.14      904770.18      906339.09      3093.0361      2585.6125     -1652.1696      7409.329       11446.995      18856.324      132509.57      40.464335      40.464335      80.928671          16000 
     71000   3607.7586      894784.94      404.61835      895135.32      895576.43      893643.08      28.262856      3391.4733      1664.9926      7460.9641      11358.966      18819.93       132759.85      40.489795      40.489795      80.979591          16000 
     72000   3623.7099      908709.24      411.21273      906712.79      909027.23      910387.7       3083.9718      1376.8399      3998.9631      7493.9518      11559.605      19053.557      132397.46      40.452921      40.452921      80.905841          16000 
     73000   3608.9288      892332.31      417.80999      891663.09      894905.9       890427.94     -1116.8631      934.57675      2138.7998      7463.3842      11244.732      18708.116      132838.84      40.497824      40.497824      80.995648          16000 
     74000   3599.0301      903245.09      424.40597      901606.03      902994.53      905134.71     -1004.0666     -276.69674      436.96561      7442.9132      11504.281      18947.195      132490.83      40.462428      40.462428      80.924856          16000 
     75000   3590.303       897062.53      431.00318      896748.58      897712.73      896726.28     -423.24682     -916.56079      767.15418      7424.8653      11402.624      18827.489      132725.52      40.486306      40.486306      80.972611          16000 
     76000   3618.1415      903405.02      437.63244      904792.91      903847.85      901574.3       6001.6107     -1372.1634     -1167.5253      7482.4362      11344.185      18826.621      132539.4       40.467372      40.467372      80.934744          16000 
     77000   3633.3516      895484.06      444.2329       895985.58      896932.6       893534.01      541.60564     -1827.3057      1800.1509      7513.8912      11258.585      18772.477      132757.07      40.489514      40.489514      80.979027          16000 
     78000   3581.1944      903965.17      450.83786      903158.19      902514.35      906222.96     -907.29536     -2884.6293     -3679.6326      7406.0285      11418.983      18825.011      132502.32      40.463598      40.463598      80.927195          16000 
     79000   3577.1571      896137.47      457.44769      896962.37      893366.89      898083.14      3274.9119      1456.9648     -2435.4763      7397.679       11344.272      18741.951      132710.08      40.484735      40.484735      80.969471          16000 
     80000   3593.2144      900095.24      464.0534       898573.9       902792.29      898919.53      627.52467     -1104.6709      259.84096      7430.8862      11378.435      18809.321      132590.61      40.472583      40.472583      80.945166          16000 
     81000   3588.8511      896620.41      470.6611       896966.4       894893.61      898001.21     -600.24975      2716.4846      1643.5671      7421.8627      11404.483      18826.346      132721.43      40.485889      40.485889      80.971779          16000 
     82000   3613.1018      900214.42      477.26851      897807.94      899491.72      903343.61      5375.661       655.93413     -796.94574      7472.014       11311.59       18783.604      132609.94      40.47455       40.47455       80.9491            16000 
     83000   3643.4383      902200.67      483.87548      901747.67      901666.83      903187.5      -1586.2937     -2659.6932      3333.0857      7534.7508      11477.865      19012.616      132656.56      40.479293      40.479293      80.958585          16000 
     84000   3570.7606      900581.98      490.48146      899576.31      901276.81      900892.81      3899.9665      2937.1534      590.3933       7384.451       11415.15       18799.601      132570.62      40.470549      40.470549      80.941098          16000 
     85000   3591.7548      899996.15      497.0924       899867.1       899059.65      901061.7       167.23814     -63.035299     -1953.9857      7427.8676      11325.331      18753.199      132644.37      40.478053      40.478053      80.956105          16000 
     86000   3609.8933      901337.23      503.69954      903017.61      900614.02      900380.06     -7156.4791      1680.731       3200.8209      7465.3787      11529.177      18994.556      132584.68      40.47198       40.47198       80.94396           16000 
     87000   3589.4475      901288.36      510.30734      900253.54      900944.18      902667.37     -3842.0397     -3285.5223     -7842.2004      7423.0961      11371.47       18794.566      132626.83      40.476268      40.476268      80.952537          16000 
     88000   3625.9804      907842.1       516.91648      908797.8       905895.13      908833.37     -746.24735     -568.56456     -298.40859      7498.6473      11592.078      19090.726      132354.4       40.448535      40.448535      80.89707           16000 
     89000   3612.9242      888747.89      523.52643      890561.97      886552.65      889129.05     -1016.7374     -1241.7359      643.63925      7471.6467      11175.278      18646.925      132896.44      40.503677      40.503677      81.007354          16000 
     90000   3634.9206      903735.25      530.1184       901939.91      905360.44      903905.39     -944.3674       5590.5988      467.62614      7517.136       11483.436      19000.572      132526.38      40.466047      40.466047      80.932094          16000 
     91000   3588.4352      898727.62      536.70941      898997.89      898941.13      898243.84      2667.0102      1037.5566     -854.16506      7421.0027      11307.904      18728.907      132637.02      40.477305      40.477305      80.95461           16000 
     92000   3599.8451      900714.07      543.30122      899897.69      903952.51      898292         1925.2389     -269.18651      1490.3601      7444.5987      11489.446      18934.045      132635.08      40.477107      40.477107      80.954214          16000 
     93000   3582.3247      897881.67      549.89535      899635.45      898328         895681.56      1270.6031      588.13701      3552.6353      7408.3659      11428.046      18836.412      132637.88      40.477392      40.477392      80.954784          16000 
     94000   3605.4523      898970.46      556.49503      900018.74      900040.99      896851.66     -4349.0226     -939.89302     -2939.0165      7456.1946      11390.611      18846.805      132622.51      40.475829      40.475829      80.951658          16000 
     95000   3627.7703      899612.02      563.09324      901254.41      899454.41      898127.25      1843.6216      330.51377     -8430.2398      7502.349       11416.925      18919.274      132598         40.473335      40.473335      80.946671          16000 
     96000   3593.3393      896667.26      569.69433      897881.72      898150.2       893969.87     -527.74882      1324.6766     -341.46246      7431.1445      11279.213      18710.358      132723.69      40.48612       40.48612       80.972239          16000 
     97000   3595.4866      906420.11      576.29466      907506.89      907726.2       904027.25     -1597.3562     -1183.0427      1116.0286      7435.5852      11387.153      18822.738      132434.31      40.456674      40.456674      80.913348          16000 
     98000   3606.1669      897932.17      582.89553      898538.35      897378.5       897879.67     -213.57785      3013.6311      1585.353       7457.6723      11304.295      18761.968      132682.7       40.481951      40.481951      80.963902          16000 
     99000   3629.3594      902291.22      589.49841      900207.77      905300.42      901365.46      2182.2953      456.77106      2815.6887      7505.6352      11348          18853.635      132572.87      40.470778      40.470778      80.941556          16000 
    100000   3593.9007      901076.32      596.10836      899108.44      903805.26      900315.25      4824.0092     -2221.7234      5232.0728      7432.3054      11448.598      18880.903      132602.25      40.473768      40.473768      80.947536          16000 
    101000   3591.0654      899115.72      602.74251      901113.06      900977.64      895256.46     -1244.1782      6754.0683      7779.2133      7426.442       11324.238      18750.68       132639.73      40.47758       40.47758       80.95516           16000 
    102000   3624.2355      900931.48      609.3598       901965.82      903606.79      897221.82      4444.8915      243.30696     -2052.0289      7495.0388      11433.868      18928.906      132521.02      40.465501      40.465501      80.931002          16000 
    103000   3584.6552      893606.64      615.96712      893109.37      894525.46      893185.1      -2502.3907     -847.20741      2995.9469      7413.1854      11261.965      18675.15       132768.79      40.490705      40.490705      80.98141           16000 
    104000   3635.2114      908881.86      622.56843      906973.38      910270.28      909401.93      4.9543287      4261.971       1516.6932      7517.7374      11581.652      19099.389      132381.73      40.451319      40.451319      80.902638          16000 
    105000   3628.6438      895495.55      629.16446      894939.36      894743.45      896803.85      4416.4004      1506.6035     -6019.131       7504.1553      11324.653      18828.809      132762.75      40.490091      40.490091      80.980182          16000 
    106000   3603.1016      902100.31      635.75919      899283.03      903126.38      903891.51      1704.5555     -5884.6642      2859.6112      7451.3332      11436.22       18887.553      132495.41      40.462894      40.462894      80.925789          16000 
    107000   3617.5117      900419.65      642.35712      898667.64      902063.1       900528.23     -1187.764       3932.5476      3390.0189      7481.1339      11413.092      18894.226      132595.24      40.473054      40.473054      80.946108          16000 
    108000   3599.1951      898231.9       648.95349      899336.68      896904.64      898454.37     -4653.1049      1348.8323      2077.8777      7443.2544      11373.163      18816.417      132673.41      40.481006      40.481006      80.962012          16000 
    109000   3568.2556      904210.62      655.54766      904865.78      904538.47      903227.59      899.94857      605.32169     -774.06832      7379.2705      11476.56       18855.831      132516.97      40.465089      40.465089      80.930179          16000 
    110000   3616.7434      895161.08      662.14336      894858.46      895516.27      895108.5       4595.1913      1444.7118      1901.0785      7479.545       11355.781      18835.326      132762.08      40.490023      40.490023      80.980046          16000 
    111000   3609.7721      910642.64      668.74063      911478.55      912691.04      907758.33     -3245.9546      4864.7989      897.75731      7465.128       11504.256      18969.384      132310.85      40.444098      40.444098      80.888196          16000 
    112000   3578.6131      892665.22      675.33836      893011.44      892653.47      892330.73      136.58536      2098.6179      362.24224      7400.6901      11348.468      18749.158      132816.45      40.495549      40.495549      80.991098          16000 
    113000   3598.0881      902776.39      681.93672      903642.75      899680.29      905006.13      5513.6289     -3769.0234      1028.2992      7440.965       11452.647      18893.612      132511.58      40.46454       40.46454       80.92908           16000 
    114000   3598.4808      899343.15      688.53112      901359.19      898301.56      898368.7       954.87393      2811.6941     -4305.2214      7441.7772      11460.37       18902.147      132721.35      40.485881      40.485881      80.971763          16000 
    115000   3602.4912      901282.87      695.12182      900060.55      901758.79      902029.25     -3163.1385      88.379012      635.13934      7450.0709      11414.685      18864.756      132571.78      40.470667      40.470667      80.941334          16000 
    116000   3568.1459      899551.4       701.71179      900976.32      899097.83      898580.07     -1392.005       3803.707       468.9807       7379.0436      11344.053      18723.096      132607.2       40.474271      40.474271      80.948542          16000 
    117000   3613.9046      903050.4       708.30438      903863.8       903170.65      902116.75      2916.8669      169.48592      3135.1241      7473.6741      11473.279      18946.953      132540.85      40.467519      40.467519      80.935038          16000 
    118000   3550.9574      893626.81      714.89454      892475.83      895369.75      893034.85      4109.9948      1332.5394      976.96443      7343.4972      11247.936      18591.433      132803.47      40.49423       40.49423       80.98846           16000 
    119000   3610.037       905224.49      721.50244      905441.08      905487.97      904744.42     -3415.9184     -942.14296     -105.67337      7465.6758      11443.156      18908.831      132506.37      40.464011      40.464011      80.928021          16000 
    120000   3578.8658      899591.06      728.11093      898686.06      898817.9       901269.21     -174.3331      -1071.2922      2668.1134      7401.2129      11293.171      18694.384      132662.03      40.479848      40.479848      80.959697          16000 
    121000   3564.255       901026.18      734.71708      902569.31      900966.03      899543.2       4328.4633      927.32577      2650.2284      7370.9971      11421.206      18792.203      132598.17      40.473352      40.473352      80.946704          16000 
    122000   3648.7699      901790.8       741.32496      903514.92      899982.61      901874.87     -827.22406      2180.9712     -4315.472       7545.7768      11405.883      18951.66       132653.31      40.478961      40.478961      80.957923          16000 
    123000   3611.8434      899745.47      747.93367      898146.93      900111.18      900978.3       3092.8436     -2138.2589     -1072.9581      7469.4116      11306.937      18776.349      132600.23      40.473562      40.473562      80.947124          16000 
    124000   3602.955       900513.91      754.54224      901823         899701.69      900017.04      689.90642      3222.7999      1694.0162      7451.0301      11362.445      18813.475      132629.56      40.476546      40.476546      80.953091          16000 
    125000   3590.0696      898869.46      761.15203      898354.98      899905.92      898347.47     -2388.7132     -895.71729     -2577.2664      7424.3826      11436.047      18860.429      132623.61      40.47594       40.47594       80.951881          16000 
    126000   3617.1481      897558.86      767.76246      899295.51      894435.14      898945.93     -2126.2459      2180.9526      2187.1259      7480.3818      11420.232      18900.614      132662.69      40.479916      40.479916      80.959832          16000 
    127000   3574.129       899189.83      774.36941      899395.44      898960.68      899213.37     -531.22434     -209.24501     -4525.533       7391.4168      11383.178      18774.594      132620.77      40.475651      40.475651      80.951302          16000 
    128000   3623.8727      902283.31      780.97983      904225.06      901375.92      901248.95      692.10715     -4098.8411      4650.9535      7494.2886      11398.994      18893.283      132617.74      40.475344      40.475344      80.950687          16000 
    129000   3594.9716      900827.2       787.5908       902956.64      900627.77      898897.2      -732.45974     -3880.1147      980.23809      7434.5201      11433.119      18867.639      132623.06      40.475885      40.475885      80.951769          16000 
    130000   3637.3562      897997.74      794.20455      900307.98      894734.94      898950.31      783.27316     -1894.1591     -2143.2394      7522.1729      11365.567      18887.74       132733.11      40.487077      40.487077      80.974154          16000 
    131000   3600.3207      899726.88      800.81828      901376.16      899062.17      898742.32     -2374.7742     -2170.0121     -1299.9083      7445.5823      11305.118      18750.7        132633.26      40.476923      40.476923      80.953845          16000 
    132000   3599.2131      899536.73      807.43085      898167.31      897943.65      902499.23      4697.5837     -1617.9541     -3564.7854      7443.2917      11395.847      18839.139      132656.09      40.479245      40.479245      80.95849           16000 
    133000   3614.5502      901328.25      814.04488      903146.74      902497.77      898340.24      654.69394      1060.0554     -383.59978      7475.0093      11460.286      18935.296      132590.2       40.472541      40.472541      80.945082          16000 
    134000   3581.6594      896564.29      820.66122      897864.38      894661.62      897166.88      4306.9107     -2299.2291      1013.9713      7406.99        11406.872      18813.862      132654.4       40.479073      40.479073      80.958145          16000 
    135000   3590.1859      899276.27      827.2783       897684.42      901294.01      898850.39     -1380.8716      2255.6029      4261.5859      7424.6231      11360.673      18785.296      132687.81      40.48247       40.48247       80.964941          16000 
    136000   3604.3052      903600.59      833.90073      903242.24      905374.85      902184.67      2640.2509      418.74404     -547.61961      7453.8223      11438.005      18891.827      132538.56      40.467287      40.467287      80.934574          16000 
    137000   3598.3631      895899.79      840.52186      894228.71      895759         897711.65      2948.533      -2900.9631     -1815.3566      7441.5338      11319.483      18761.017      132727.32      40.486489      40.486489      80.972978          16000 
    138000   3601.6419      907168.22      847.14108      907023.7       907106.97      907374         2958.0036      165.84757      4701.3107      7448.3144      11540.685      18988.999      132404.32      40.453619      40.453619      80.907238          16000 
    139000   3578.2116      895338.59      853.76111      893123.29      895312.04      897580.42     -1711.3159     -1483.1889      1532.7449      7399.8598      11321.151      18721.011      132701.24      40.483837      40.483837      80.967674          16000 
    140000   3613.617       904576.83      860.38075      903208.36      906014.6       904507.54      864.5601       2512.6592     -864.54963      7473.0794      11407.321      18880.4        132493.42      40.462692      40.462692      80.925384          16000 
    141000   3579.1263      896467.24      866.99947      895020.11      897997.26      896384.35      1752.7058     -3313.1212     -3368.9265      7401.7515      11398.166      18799.917      132752.1       40.489008      40.489008      80.978015          16000 
    142000   3591.7696      902344.5       873.61966      900656.15      903886.33      902491.02      1430.1844     -2338.8201     -2311.0584      7427.8983      11340.941      18768.84       132587.62      40.472279      40.472279      80.944557          16000 
    143000   3575.3342      897462.18      880.24148      895597.28      898260.41      898528.85      2721.3126     -305.00021      1052.7897      7393.9092      11382.748      18776.657      132680.42      40.48172       40.48172       80.963439          16000 
    144000   3600.1604      903033.86      886.8635       901390.56      905216.76      902494.25      1794.091      -2284.3514     -1844.0853      7445.2507      11382.257      18827.507      132510.36      40.464416      40.464416      80.928832          16000 
    145000   3569.6298      898493.88      893.48827      898987.97      896970.07      899523.61     -5169.2402     -7171.2658     -2468.8966      7382.1123      11393.837      18775.949      132639.61      40.477568      40.477568      80.955136          16000 
    146000   3620.7116      900957.95      900.11171      901050.6       900158.87      901664.39      2107.5729     -299.04601     -233.73822      7487.7512      11469.765      18957.516      132559.59      40.469427      40.469427      80.938853          16000 
    147000   3598.9696      897304.38      906.72985      897479.96      897138.92      897294.28      1906.4623     -5440.5559     -764.29325      7442.7881      11358.57       18801.358      132705.09      40.484228      40.484228      80.968455          16000 
    148000   3592.5237      902289.41      913.3497       901506.82      905719.42      899641.98     -2071.1552     -3617.1528     -1311.916       7429.4578      11473.839      18903.297      132595.72      40.473103      40.473103      80.946207          16000 
    149000   3629.8368      896333.63      919.97163      894058.98      895093.87      899848.04      1156.2499      6222.5943     -1067.2304      7506.6226      11273.488      18780.11       132714.1       40.485144      40.485144      80.970289          16000 
    150000   3615.7426      900772.79      926.59327      899501.58      902248.91      900567.89     -4793.1223     -2210.8888     -766.97105      7477.4752      11368.703      18846.178      132565.05      40.469982      40.469982      80.939964          16000 
    151000   3606.2732      896287.84      933.21471      893901.24      898341.04      896621.23      520.96354     -1968.9618     -1594.5794      7457.8921      11429.554      18887.446      132729.5       40.48671       40.48671       80.973421          16000 
    152000   3607.6847      903200.01      939.8393       904518.4       904190.41      900891.2       390.51268     -564.33171     -3330.407       7460.8113      11446.941      18907.753      132531.95      40.466614      40.466614      80.933228          16000 
    153000   3608.8691      896578.82      946.45881      897850.32      897274.35      894611.8       6734.3305      3477.9678      7773.8263      7463.2605      11380.587      18843.847      132704.99      40.484218      40.484218      80.968436          16000 
    154000   3614.5745      904047.57      953.08281      905058.01      903705.65      903379.04     -1048.1581     -1595.2051     -2428.7697      7475.0595      11437.961      18913.02       132470.13      40.460321      40.460321      80.920642          16000 
    155000   3612.1289      895516.97      959.7051       892772.8       897134.6       896643.53     -2200.4132      2993.2088     -996.42544      7470.002       11237.778      18707.78       132731.69      40.486933      40.486933      80.973866          16000 
    156000   3587.1567      904552.79      966.33013      901872.09      907676.91      904109.38     -505.12183     -68.069489      1811.6991      7418.3586      11435.926      18854.285      132550.81      40.468533      40.468533      80.937065          16000 
    157000   3590.7025      897514.18      972.95376      897876.43      894599.49      900066.61     -1367.8865     -2362.6333      5422.3588      7425.6914      11365.138      18790.829      132666.79      40.480333      40.480333      80.960665          16000 
    158000   3605.1404      902920.61      979.57568      902708.06      904559.78      901494.01      84.27139       839.98262     -546.44024      7455.5495      11352.804      18808.354      132549.89      40.468439      40.468439      80.936878          16000 
    159000   3623.9976      894478.49      986.19808      894490.59      894445.25      894499.64     -5294.1405     -4672.3228     -2733.9308      7494.5469      11344.813      18839.36       132807.82      40.494671      40.494671      80.989343          16000 
    160000   3587.1279      905008.41      992.82014      906179.94      905265.48      903579.81      1059.5086     -4579.131       5801.8148      7418.2992      11444.244      18862.543      132490         40.462344      40.462344      80.924688          16000 
    161000   3608.1696      896402.2       999.44184      897012.94      899725.08      892468.59      456.33518      706.04156     -659.01925      7461.8139      11315.71       18777.524      132707.37      40.48446       40.48446       80.96892           16000 
    162000   3595.5938      902519.47      1006.0642      904178.09      902523.2       900857.12      891.34997      1915.983       349.70643      7435.8068      11370.454      18806.26       132537.58      40.467186      40.467186      80.934373          16000 
    163000   3571.9207      900355.52      1012.687       899760.05      898085.61      903220.91     -2916.0035     -2283.9718     -1333.3949      7386.85        11365.635      18752.485      132597.52      40.473287      40.473287      80.946573          16000 
    164000   3620.251       897041.71      1019.3091      896007.18      896630.98      898486.96      7509.0785      2010.3833     -5516.2452      7486.7988      11359.759      18846.557      132678.74      40.481548      40.481548      80.963096          16000 
    165000   3573.3699      901984.46      1025.9335      901453.61      903260.49      901239.28     -2812.2856      2354.5254      3835.1045      7389.847       11445.65       18835.497      132514.73      40.464861      40.464861      80.929723          16000 
    166000   3652.7028      897225.08      1032.5406      897787.72      899442.57      894444.96     -3343.7523      391.17384     -2774.5447      7553.9102      11363.963      18917.873      132769.16      40.490742      40.490742      80.981484          16000 
    167000   3592.5223      903250.94      1039.143       903361.15      905148.86      901242.81     -1087.6895     -2028.8349     -818.81233      7429.4548      11439.133      18868.587      132488.22      40.462163      40.462163      80.924325          16000 
    168000   3586.0489      900473.76      1045.7454      898375.63      900791.71      902253.93      2198.449      -983.85113     -461.50724      7416.0676      11302.776      18718.844      132671.24      40.480785      40.480785      80.96157           16000 
    169000   3612.2013      901497.72      1052.3506      900506.84      902633.7       901352.63     -787.03852     -1533.4881      5798.3246      7470.1518      11404.549      18874.7        132558.44      40.46931       40.46931       80.938619          16000 
    170000   3600.9858      896313.54      1058.9551      897724.45      896924.25      894291.93      2103.6827      173.89268      1122.7039      7446.9577      11320.604      18767.562      132669.71      40.48063       40.48063       80.961261          16000 
    171000   3632.6902      901784.75      1065.5594      905474.41      901846.35      898033.47     -3292.4305      2521.4807      1287.4242      7512.5234      11402.16       18914.684      132543.8       40.46782       40.46782       80.93564           16000 
    172000   3583.707       897606.6       1072.1618      899746.64      896205.49      896867.68     -6786.6177      4231.3872     -2651.0587      7411.2245      11386.015      18797.24       132654.49      40.479082      40.479082      80.958164          16000 
    173000   3568.9257      905222.02      1078.7658      907885.89      903113.07      904667.1      -3946.4345     -1345.1179     -1342.7837      7380.6564      11481.856      18862.512      132512.18      40.464601      40.464601      80.929203          16000 
    174000   3572.0913      897775.5       1085.3734      897791.39      896918.51      898616.6       1240.7812      2008.4783      2401.8196      7387.203       11341.9        18729.103      132662.9       40.479937      40.479937      80.959874          16000 
    175000   3621.8744      902706.15      1091.9762      902050.76      900712.83      905354.86     -553.21015      664.00316      4564.2234      7490.1561      11433.523      18923.679      132553.43      40.4688        40.4688        80.937599          16000 
    176000   3620.555       896266.98      1098.5782      894433         895841.24      898526.71     -330.71962     -5105.9406      7102.1461      7487.4275      11308.453      18795.88       132688.13      40.482503      40.482503      80.965007          16000 
    177000   3586.548       901858.16      1105.1848      901583.79      901901.23      902089.48      517.12163     -2556.5323      2425.3332      7417.0999      11475.351      18892.451      132570.06      40.470492      40.470492      80.940985          16000 
    178000   3570.9096      897917.09      1111.7917      896358.67      900972.22      896420.36      2177.456      -3255.7717      260.73562      7384.7591      11316.594      18701.353      132684.99      40.482184      40.482184      80.964368          16000 
    179000   3588.0334      901574.34      1118.3988      898903.38      901768.66      904051        -1201.0447     -100.38002      1593.6226      7420.1718      11487.75       18907.922      132587.3       40.472246      40.472246      80.944492          16000 
    180000   3588.78        894933.54      1125.0083      896533.31      891145.77      897121.54      206.5478       1792.9364     -747.01466      7421.7156      11311.232      18732.947      132743.11      40.488094      40.488094      80.976187          16000 
    181000   3609.4128      904560.23      1131.612       905685.95      902543.5       905451.23     -4434.0252     -1406.0411     -1272.0586      7464.385       11521.434      18985.819      132515.63      40.464953      40.464953      80.929906          16000 
    182000   3617.5483      898737.7       1138.217       898285.79      900480.22      897447.09     -6467.5051     -696.01005      4573.3535      7481.2095      11319.884      18801.094      132687.61      40.48245       40.48245       80.9649            16000 
    183000   3569.0594      902984.5       1144.8216      899797.98      903864.49      905291.04     -4251.9174      2381.5796      4166.4206      7380.9329      11431.723      18812.656      132518.04      40.465198      40.465198      80.930395          16000 
    184000   3609.5267      896266.36      1151.4287      896092.08      895634.11      897072.89      2627.0939     -3832.0116      3466.2075      7464.6205      11323.113      18787.733      132698.2       40.483527      40.483527      80.967055          16000 
    185000   3576.61        901689.66      1158.0323      900122.67      900544.8       904401.52     -792.411       -1043.0514      1828.5454      7396.5476      11402.442      18798.989      132515.06      40.464895      40.464895      80.92979           16000 
    186000   3600.6628      893235.23      1164.6404      892358.52      892878.96      894468.23     -2612.1791     -5056.8985     -639.59993      7446.2897      11341.752      18788.042      132732.43      40.487008      40.487008      80.974017          16000 
    187000   3607.2657      903157.42      1171.2475      902258.69      901690.92      905522.65      4762.4476     -903.10861      3810.3295      7459.9447      11430.821      18890.765      132469.59      40.460266      40.460266      80.920531          16000 
    188000   3593.0084      896809.62      1177.8583      899012.66      894910.99      896505.2       6374.9873      4730.3414      2055.4749      7430.4601      11384.55       18815.011      132697.59      40.483466      40.483466      80.966931          16000 
    189000   3594.4709      901693.54      1184.4633      900924.6       901301.43      902854.59      2297.4411      5889.5929     -806.38079      7433.4847      11340.107      18773.592      132556.1       40.469072      40.469072      80.938144          16000 
    190000   3577.7968      900685.63      1191.0584      902098.85      900703.79      899254.24      4090.9227     -3256.7802      1794.7581      7399.0021      11388.221      18787.223      132626.69      40.476254      40.476254      80.952509          16000 
    191000   3622.6935      898239.72      1197.6643      896030.09      900888.95      897800.11      1249.6867      1303.8634      4072.9227      7491.8499      11341.175      18833.025      132673.04      40.480969      40.480969      80.961938          16000 
    192000   3592.157       901768.49      1204.2686      905670.35      901626.15      898008.95     -4115.4631     -3251.259       386.5482       7428.6994      11351.286      18779.985      132532.74      40.466694      40.466694      80.933388          16000 
    193000   3599.5833      895093.86      1210.8725      897000.73      895055.51      893225.36      3648.4986      2846.8998     -462.77814      7444.0573      11277.042      18721.1        132712.08      40.484939      40.484939      80.969878          16000 
    194000   3624.5494      908196.64      1217.4805      908266.15      908866.66      907457.1      -1088.6326      1498.2433     -3711.2775      7495.688       11518.999      19014.687      132356.35      40.448734      40.448734      80.897468          16000 
    195000   3574.6564      889981.25      1224.0868      887558.52      892291.07      890094.16      4707.8165     -4626.6515     -3229.48        7392.5077      11273.597      18666.105      132887.81      40.5028        40.5028        81.0056            16000 
    196000   3596.8373      905772.41      1230.6916      905614.89      905003.36      906698.97     -1759.2121      3689.1514     -1156.7387      7438.3784      11472.827      18911.205      132472.44      40.460556      40.460556      80.921112          16000 
    197000   3609.3567      895576.63      1237.2964      895307.27      895671.59      895751.01      2220.4688      3271.9597      2195.4464      7464.2689      11267.121      18731.39       132687.58      40.482447      40.482447      80.964895          16000 
    198000   3599.7962      902248.87      1243.9032      901494.46      902005.43      903246.71     -3706.1862      724.14054     -2412.357       7444.4976      11405.212      18849.71       132582.54      40.471762      40.471762      80.943525          16000 
    199000   3566.0801      897229.24      1250.5059      897029.8       894313.35      900344.57      303.7306       3987.9142     -4.7801279      7374.7716      11296.048      18670.82       132695.95      40.483298      40.483298      80.966596          16000 
    200000   3590.7597      907010         1257.1149      912596.55      904128.07      904305.36     -3672.8861     -1474.2158     -870.26303      7425.8098      11452.434      18878.244      132451.49      40.458423      40.458423      80.916845          16000 
    201000   3595.9142      889815.23      1263.7173      891045.68      887558.41      890841.6      -4380.7814     -1030.8227      436.96786      7436.4694      11341.58       18778.049      132868.91      40.50088       40.50088       81.001759          16000 
    202000   3611.8924      907239.94      1270.3188      907831.02      907045.86      906842.93      4666.8        -1122.8593     -75.74313       7469.5128      11462.592      18932.105      132381.65      40.451311      40.451311      80.902622          16000 
    203000   3600.4002      892255.24      1276.9222      892055.57      892092.94      892617.22      5813.7069     -1074.977       1932.573       7445.7467      11279.139      18724.885      132786.68      40.492524      40.492524      80.985047          16000 
    204000   3571.1088      904739.38      1283.5301      903754.58      904485.96      905977.61     -3571.2093     -2228.9113      3922.8495      7385.171       11476.251      18861.422      132473.47      40.460661      40.460661      80.921321          16000 
    205000   3578.2192      900135.94      1290.1335      900129.88      900942.17      899335.77     -3596.8005     -150.62908      1840.3769      7399.8755      11369.984      18769.86       132634.65      40.477064      40.477064      80.954128          16000 
    206000   3643.1598      899834.29      1296.7356      901005.98      897968.02      900528.86     -44.648945      762.27989     -421.5875       7534.1748      11396.056      18930.23       132630.11      40.476601      40.476601      80.953203          16000 
    207000   3574.2029      896127.58      1303.3389      896214.67      897574.66      894593.43      1093.1144      863.78359     -2104.4913      7391.5698      11340.913      18732.483      132726.85      40.48644       40.48644       80.972881          16000 
    208000   3671.0711      906119.94      1309.9334      905348.21      904473.35      908538.27     -1.9212253     -2148.3403     -2267.9296      7591.8964      11384.866      18976.763      132485.98      40.461934      40.461934      80.923869          16000 
    209000   3613.6909      895235.18      1316.5251      895005.46      896703.91      893996.15     -622.99231     -593.19875      1351.09        7473.2322      11277.303      18750.535      132812.48      40.495146      40.495146      80.990291          16000 
    210000   3603.7571      905476.34      1323.1157      908789.81      903435.61      904203.6       1853.0687     -746.61067      4015.6458      7452.6887      11365.019      18817.708      132464.19      40.459716      40.459716      80.919433          16000 
    211000   3576.4193      896746.5       1329.7129      897225.19      896505.66      896508.65      3301.2611      747.12185      1398.2501      7396.1534      11358.426      18754.579      132696.27      40.483331      40.483331      80.966663          16000 
    212000   3592.069       901162.98      1336.3105      901977.63      902189.27      899322.04     -4737.1232     -5750.2343      3990.5487      7428.5175      11442.672      18871.19       132533.93      40.466815      40.466815      80.93363           16000 
    213000   3603.1937      895631.92      1342.9009      894624.5       895380.44      896890.82     -2200.5843     -609.21369     -3095.0095      7451.5238      11397.624      18849.148      132740.63      40.487842      40.487842      80.975684          16000 
    214000   3564.6048      904262.67      1349.5005      903536.09      903597.27      905654.65     -1810.8543      1910.1468      1242.3312      7371.7205      11511.081      18882.801      132486.78      40.462016      40.462016      80.924032          16000 
    215000   3586.5333      894660.82      1356.1001      895484.73      895132.94      893364.81     -552.79315      3885.288       3355.3664      7417.0695      11387.829      18804.898      132770.87      40.490916      40.490916      80.981832          16000 
    216000   3566.2137      905235.57      1362.6979      904773.31      905858.63      905074.76     -3046.4935      240.14222      434.92766      7375.0479      11432.462      18807.51       132486.32      40.461969      40.461969      80.923939          16000 
    217000   3586.6381      895283.23      1369.3         896537.77      894494.61      894817.31     -2532.6348     -521.11897     -552.6422       7417.2862      11340.966      18758.253      132781.88      40.492035      40.492035      80.98407           16000 
    218000   3558.3928      904788.65      1375.8994      903529.27      904030.59      906806.1      -790.85342     -1103.5309      1695.5487      7358.874       11399.534      18758.408      132502.72      40.463639      40.463639      80.927277          16000 
    219000   3627.7491      894412.21      1382.4983      894098.27      893705.39      895432.96     -1563.0941     -2232.8388      4238.03        7502.3051      11277.993      18780.298      132802.9       40.494171      40.494171      80.988343          16000 
    220000   3593.4834      900839.61      1389.092       902804.36      896514.4       903200.08      2430.8399      2572.7039      3173.4308      7431.4424      11397.809      18829.252      132604.59      40.474006      40.474006      80.948012          16000 
    221000   3564.4806      898283.28      1395.6847      895981.1       898014.42      900854.31      678.05312      1329.1403     -1201.5594      7371.4638      11315.634      18687.098      132663.14      40.479962      40.479962      80.959923          16000 
    222000   3607.2696      902269.54      1402.2816      901997.39      901384.04      903427.19     -739.59325      1814.9991      2397.2726      7459.9528      11450.081      18910.034      132568.91      40.470375      40.470375      80.94075           16000 
    223000   3588.7812      896992.97      1408.8809      897626.89      896923.5       896428.54      2011.5481     -5089.7061     -636.78905      7421.7182      11334.731      18756.45       132738.56      40.487631      40.487631      80.975262          16000 
    224000   3624.5295      902393.16      1415.4781      901288.43      902785.26      903105.77      2454.6176      5863.1175      2890.7523      7495.6468      11421.6        18917.247      132590.82      40.472605      40.472605      80.94521           16000 
    225000   3621.7342      900336.25      1422.0718      899743.41      900164.75      901100.6       1632.4441     -2705.5529      398.03097      7489.866       11310.163      18800.029      132631.73      40.476766      40.476766      80.953533          16000 
    226000   3650.5796      900880.56      1428.6663      903875.93      900161.3       898604.45      421.59849      611.40173      3967.3267      7549.5193      11375.837      18925.357      132618.61      40.475432      40.475432      80.950863          16000 
    227000   3610.4769      897045.39      1435.2621      899505.02      896999.19      894631.95      4303.1208      2751.7899     -3905.7967      7466.5855      11318.348      18784.934      132671.3       40.480791      40.480791      80.961582          16000 
    228000   3592.2835      903155.1       1441.8563      900130.69      905090.94      904243.68      1134.6493     -284.60032     -639.85821      7428.961       11504.972      18933.933      132570.35      40.470521      40.470521      80.941042          16000 
    229000   3583.2574      898505.24      1448.4535      900260.23      901500.68      893754.81      1838.5394     -599.93127     -1607.3646      7410.2948      11243.841      18654.135      132648.73      40.478496      40.478496      80.956992          16000 
    230000   3627.6625      903823.31      1455.0521      905330.93      902692.85      903446.14     -2096.1152      5384.103      -358.30304      7502.126       11382.934      18885.06       132533.91      40.466813      40.466813      80.933626          16000 
    231000   3558.6805      899133.84      1461.65        900380.75      897872.96      899147.81      1647.1255      2466.483       730.94638      7359.4689      11376.29       18735.759      132614.36      40.475         40.475         80.95              16000 
    232000   3598.9979      900373.13      1468.2465      900790.92      902631.63      897696.83      4555.7253     -4665.1837      3263.9023      7442.8466      11428.854      18871.7        132635.24      40.477124      40.477124      80.954248          16000 
    233000   3574.5219      899215.23      1474.8461      900139.42      897265.5       900240.76      2014.3383     -832.65892      1066.6934      7392.2294      11290.482      18682.711      132617.73      40.475343      40.475343      80.950685          16000 
    234000   3617.0026      898659.88      1481.4432      898378.23      898926.83      898674.58      2245.5036     -1405.889      -4149.0516      7480.081       11346.466      18826.547      132640.09      40.477617      40.477617      80.955234          16000 
    235000   3613.1093      900036.35      1488.0389      899033.41      900256.62      900819.02      2888.0606     -59.895996     -1494.0046      7472.0294      11261.432      18733.461      132591.83      40.472707      40.472707      80.945414          16000 
    236000   3612.0582      900972.71      1494.6332      901096.07      902459.04      899363.01      94.543429      2743.5557      1595.719       7469.8559      11351.774      18821.63       132652.95      40.478926      40.478926      80.957851          16000 
    237000   3585.1213      902823.9       1501.2277      901258.01      904230.58      902983.11      3317.7263      1276.7673     -847.24565      7414.1493      11351.631      18765.781      132544.83      40.467924      40.467924      80.935849          16000 
    238000   3606.5878      902492.97      1507.8227      899967.39      903663.44      903848.08     -3196.7325      3223.6334     -1049.3123      7458.5428      11362.27       18820.813      132565.92      40.470071      40.470071      80.940141          16000 
    239000   3619.3151      899738.51      1514.4192      898988.83      895910.15      904316.56     -1928.9348      3137.5892      4370.4973      7484.8633      11384.079      18868.942      132628.98      40.476487      40.476487      80.952975          16000 
    240000   3589.0393      901896.32      1521.0153      900576.12      902746.74      902366.1      -507.95168     -205.26878     -3353.0754      7422.252       11396.017      18818.269      132575.15      40.47101       40.47101       80.94202           16000 
    241000   3593.3967      898021.67      1527.6132      898190.57      897503.22      898371.22      1504.0145      6196.6989     -3768.2674      7431.2632      11412.381      18843.644      132695.31      40.483234      40.483234      80.966467          16000 
    242000   3598.3333      899599.83      1534.2104      897806.38      899116.24      901876.89     -64.019295      1480.615      -266.30604      7441.4721      11346.539      18788.011      132613.27      40.474889      40.474889      80.949778          16000 
    243000   3616.9808      899726.37      1540.8055      898774.25      901544.93      898859.93      1345.8088      570.04097      2667.0088      7480.0359      11456.303      18936.339      132605.66      40.474114      40.474114      80.948228          16000 
    244000   3623.7729      899940.24      1547.4034      899297.9       901388.27      899134.56      2382.1666      2050.5407     -4343.3648      7494.0821      11341.495      18835.577      132641.37      40.477747      40.477747      80.955494          16000 
    245000   3563.5268      900548.69      1553.9978      901285.74      899861.88      900498.44      657.14593     -1754.5023     -1628.1006      7369.4913      11346.714      18716.206      132560.79      40.469549      40.469549      80.939098          16000 
    246000   3645.4064      901486.85      1560.5917      902146.09      900507.76      901806.7       2273.3288     -3627.7483      2734.6308      7538.821       11361.624      18900.445      132609.3       40.474484      40.474484      80.948969          16000 
    247000   3568.1204      897366.64      1567.1876      898669.95      897976.93      895453.04      2779.7585     -164.15936     -602.2439       7378.9909      11442.453      18821.444      132706.59      40.484381      40.484381      80.968762          16000 
    248000   3592.7784      903454.84      1573.7821      904136.39      904616.13      901612        -97.785714      3059.9364      1903.19        7429.9845      11421.959      18851.944      132551.01      40.468553      40.468553      80.937106          16000 
    249000   3591.0106      895909.4       1580.3769      895566.04      898657.78      893504.39      180.7816       2849.5893     -278.11276      7426.3287      11342.489      18768.817      132726.31      40.486386      40.486386      80.972772          16000 
    250000   3603.9047      908326.59      1586.9731      908507.97      907829.94      908641.86     -923.19353      2292.3317      2283.9664      7452.9941      11507.8        18960.794      132399.02      40.45308       40.45308       80.90616           16000 
    251000   3597.4559      889658.37      1593.5686      890062.31      887999.92      890912.89      2025.8035     -2652.4073     -410.6233       7439.6577      11238.53       18678.187      132892         40.503226      40.503226      81.006451          16000 
    252000   3597.0812      903766.42      1600.1612      905168.78      902872.99      903257.49     -2375.006      -3385.1921      1417.5091      7438.8828      11412.379      18851.262      132523.68      40.465772      40.465772      80.931545          16000 
    253000   3609.1651      895803.16      1606.7589      895532.91      897266.82      894609.74      1660.7538     -1992.8626      4251.2437      7463.8727      11386.94       18850.812      132705.8       40.4843        40.4843        80.968601          16000 
    254000   3567.1292      904068.36      1613.3556      904968.02      903353.53      903883.52      2376.6259      1467.3997     -444.43508      7376.9411      11436.275      18813.216      132492.55      40.462603      40.462603      80.925206          16000 
    255000   3600.8985      897613.12      1619.9544      897545.98      897772.78      897520.6       1099.9787     -2036.5219     -831.83764      7446.7772      11315.918      18762.695      132662.35      40.479882      40.479882      80.959763          16000 
    256000   3619.776       904624.42      1626.5541      903171.75      905423.33      905278.18      455.94415      4856.916       3493.005       7485.8164      11383.996      18869.813      132484.59      40.461793      40.461793      80.923586          16000 
    257000   3626.3848      895992.6       1633.1518      896363.28      893816.66      897797.87     -3513.9984      3243.5642     -6880.6401      7499.4836      11265.865      18765.349      132707.92      40.484515      40.484515      80.969031          16000 
    258000   3614.1474      909952.42      1639.7459      911283.55      910294.81      908278.89     -2257.3136     -1190.9342      1623.8728      7474.1763      11546.215      19020.391      132365.14      40.449629      40.449629      80.899258          16000 
    259000   3581.8359      892455.55      1646.3394      892299.21      892641.55      892425.89     -2238.4819      1260.4782     -2366.4041      7407.3551      11332.594      18739.949      132752.4       40.489038      40.489038      80.978076          16000 
    260000   3576.079       905372.33      1652.9286      904685.62      903461.96      907969.41     -1295.8014     -1887.5303      6099.2681      7395.4495      11438.754      18834.203      132440.34      40.457288      40.457288      80.914576          16000 
    261000   3596.9797      897903.95      1659.5179      898831.98      899492.08      895387.79      4116.7143     -8457.4177      2103.8348      7438.6728      11364.365      18803.038      132638.92      40.477498      40.477498      80.954996          16000 
    262000   3586.7324      899955.71      1666.1101      899090.12      898974.16      901802.84     -3476.757       123.8148       64.946958      7417.4812      11450.676      18868.157      132568.78      40.470362      40.470362      80.940723          16000 
    263000   3536.5224      897513.01      1672.7024      898500.27      897674.33      896364.44      2722.2402     -3835.2973     -3159.8987      7313.6452      11452.088      18765.733      132620.61      40.475635      40.475635      80.951271          16000 
    264000   3604.5996      901149.68      1679.2958      900598.32      899594.26      903256.45      5256.009      -4134.211      -206.4777       7454.4311      11450.551      18904.982      132614.42      40.475006      40.475006      80.950012          16000 
    265000   3631.8447      900059.53      1685.8886      902459.06      899235.31      898484.23     -1711.6491     -4221.8955     -3116.4906      7510.7748      11397.484      18908.259      132617.51      40.47532       40.47532       80.950639          16000 
    266000   3589.0366      901145.05      1692.4804      902671.63      900488.13      900275.41      1712.6066     -138.9825      -3686.4927      7422.2463      11424.234      18846.48       132588.59      40.472377      40.472377      80.944754          16000 
    267000   3598.9822      897481.6       1699.071       894820.17      899445.02      898179.6      -2059.4648      5026.2572      1876.7789      7442.8141      11378.902      18821.716      132619         40.475471      40.475471      80.950942          16000 
    268000   3589.2379      902097.54      1705.6629      902245.89      900023.88      904022.83     -1365.4481      333.58595      366.47768      7422.6627      11350.241      18772.903      132560.14      40.469482      40.469482      80.938965          16000 
    269000   3628.6329      902818.19      1712.254       899802.38      905815.88      902836.3      -144.20926     -3422.9763     -1298.632       7504.1329      11494.868      18999.001      132544.25      40.467866      40.467866      80.935732          16000 
    270000   3603.2513      897895.51      1718.8457      897154.09      898084.53      898447.91     -1211.2682      116.37619      472.49456      7451.6427      11424.542      18876.185      132643.84      40.477998      40.477998      80.955996          16000 
    271000   3633.6324      901618.1       1725.4376      900743.69      905455.92      898654.7       4489.4225     -2293.1006      2202.9264      7514.472       11352.178      18866.65       132548.62      40.46831       40.46831       80.93662           16000 
    272000   3668.0514      897003.88      1732.0301      894320.34      897238.31      899453        -2457.5977      691.91991     -1463.5096      7585.6516      11379.406      18965.058      132704.44      40.484161      40.484161      80.968323          16000 
    273000   3622.9365      903679.34      1738.622       903599.66      904386.96      903051.39      7.1345855      589.66675     -3502.0176      7492.3524      11374.388      18866.741      132499.05      40.463264      40.463264      80.926529          16000 
    274000   3592.4331      893546.82      1745.2178      894428.22      894744.6       891467.65      2695.3878      1652.5415     -2300.5283      7429.2704      11351.377      18780.648      132774.79      40.491314      40.491314      80.982628          16000 
    275000   3608.1292      906058.7       1751.8132      903732.56      908002.91      906440.62      2378.7335      3522.183      -457.11836      7461.7304      11441.136      18902.867      132447.19      40.457986      40.457986      80.915971          16000 
    276000   3588.3581      895052.57      1758.4074      892120.74      897680.48      895356.49     -7758.4569      4277.9547      2870.5263      7420.8433      11312.594      18733.437      132700.88      40.4838        40.4838        80.967599          16000 
    277000   3561.7536      903792.79      1765.0027      903665.84      902771.65      904940.88     -266.64096     -2170.6044      113.78084      7365.8242      11451.851      18817.675      132525.1       40.465917      40.465917      80.931833          16000 
    278000   3669.9513      897315         1771.6017      896413.25      898826.16      896705.58      1391.6637      2130.573      -3239.9769      7589.5807      11354.895      18944.476      132693.35      40.483034      40.483034      80.966068          16000 
    279000   3611.0058      903812.06      1778.2059      903717.23      904482.96      903235.98      623.58877      63.664019      2773.8726      7467.6793      11408.506      18876.185      132491.57      40.462504      40.462504      80.925008          16000 
    280000   3607.9329      891854.99      1784.8069      890386.97      893211.36      891966.63      1702.6803     -701.50536     -1362.6545      7461.3246      11249.994      18711.318      132865.79      40.500563      40.500563      81.001126          16000 
    281000   3629.8344      909070.39      1791.4094      908399.44      911869.58      906942.16      4140.765      -1071.7106     -3949.819       7506.6176      11545.058      19051.675      132396.78      40.452851      40.452851      80.905702          16000 
    282000   3573.2366      893881.68      1798.0125      893148.61      894544.17      893952.27     -3552.5287     -1065.0833     -1612.7691      7389.5713      11221.712      18611.283      132758.19      40.489627      40.489627      80.979253          16000 
    283000   3600.5754      902217.93      1804.6153      898421.22      904089.42      904143.15      1038.479      -2577.4137     -2844.3918      7446.1089      11465.099      18911.208      132559.26      40.469394      40.469394      80.938787          16000 
    284000   3607.8612      899870.64      1811.216       896599.79      899732.41      903279.73      1809.158      -2612.2406     -3621.291       7461.1763      11323.436      18784.612      132662.69      40.479916      40.479916      80.959832          16000 
    285000   3600.2887      902588.25      1817.8185      903705.2       900871.18      903188.38     -1986.9353     -2372.3559     -4316.1099      7445.5161      11518.861      18964.377      132578.47      40.471348      40.471348      80.942695          16000 
[...]
   3930000   4462.5677      900546.88      6702.9394      894113.79      895888.43      911638.41      51936.493     -5607.7745     -1260.6178      9228.7374      22990.757      32219.495      119865.95      39.418129      39.418129      77.144299          16000 
   3931000   4475.9252      891150.02      6710.1313      885904.28      890450.86      897094.93      54404.542      5034.8704     -530.66142      9256.3613      22863.254      32119.615      120043.03      39.43753       39.43753       77.182267          16000 
   3932000   4475.3927      898866.81      6717.3226      895580.89      897715.09      903304.45      57760.226     -460.03402     -2087.0847      9255.2601      23018.74       32274          119765.52      39.407116      39.407116      77.122746          16000 
   3933000   4462.0712      909746.17      6724.5138      906594         906413.37      916231.13      52211.366      295.02677     -370.38531      9227.7108      23120.864      32348.575      119631.7       39.392434      39.392434      77.094012          16000 
   3934000   4469.5403      897748.45      6731.7095      890103.43      894249.64      908892.29      52596.748      5725.9161      2742.5334      9243.1572      22936.83       32179.988      119930.69      39.425224      39.425224      77.158185          16000 
   3935000   4460.2983      899133.41      6738.904       901783.22      894874.39      900742.62      55107.314      1676.1044      68.19979       9224.0444      23014.209      32238.253      119823.38      39.413462      39.413462      77.135164          16000 
   3936000   4507.4309      899355.53      6746.0979      895611.56      898839.83      903615.22      52235.931     -1438.0797     -4996.0946      9321.516       22898.721      32220.238      119853.95      39.416813      39.416813      77.141723          16000 
   3937000   4513.7806      896430.75      6753.2954      889343.22      897483.31      902465.72      52522.318      1738.6881     -516.33362      9334.6475      22842.318      32176.966      119929.78      39.425124      39.425124      77.157989          16000 
   3938000   4523.8302      901153.2       6760.4898      895091.53      896569.41      911798.66      55964.904     -2262.2493     -1565.4059      9355.4304      22900.104      32255.534      119788.65      39.409653      39.409653      77.127711          16000 
   3939000   4470.9963      907144.56      6767.6838      903349.33      903642.14      914442.2       50425.403     -3577.1547      1911.2838      9246.1681      23079.61       32325.778      119661.92      39.39575       39.39575       77.100502          16000 
   3940000   4465.5111      894685.61      6774.8778      891797.52      891481.94      900777.37      57465.609     -90.246019      90.90155       9234.8246      22887.349      32122.173      120023         39.435337      39.435337      77.177976          16000 
   3941000   4464.0122      901352.91      6782.071       899477.18      899037.65      905543.89      57339.701     -3182.7765     -4291.7661      9231.7249      23005.336      32237.061      119816.49      39.412706      39.412706      77.133686          16000 
   3942000   4486.7184      904965.44      6789.2673      901411.57      902101.45      911383.28      55547.78       2956.1037     -2310.9747      9278.6821      22980.917      32259.599      119776.03      39.408269      39.408269      77.125003          16000 
   3943000   4480.2116      896757.5       6796.4667      896623.48      891671.67      901977.36      51422.152      2414.0627     -4006.685       9265.2258      22929.319      32194.544      119890.56      39.420826      39.420826      77.149577          16000 
   3944000   4544.5856      897936.21      6803.6638      894444.63      894747.01      904616.98      50634.388      8182.5999     -1851.6021      9398.3532      22794.416      32192.769      119892.67      39.421057      39.421057      77.15003           16000 
   3945000   4465.2183      905615.63      6810.8611      899288.49      902393.13      915165.28      54079.669      1865.9014     -2845.6572      9234.219       23030.772      32264.991      119763.78      39.406926      39.406926      77.122373          16000 
   3946000   4452.4117      904362.37      6818.0572      903168.94      898440.86      911477.31      52344.305     -1440.9122     -3545.8726      9207.7345      23065.084      32272.819      119748.62      39.405263      39.405263      77.119119          16000 
   3947000   4467.8965      890894.46      6825.2524      892695.42      885619.83      894368.14      55255.046      4536.5807     -1752.8701      9239.7577      22860.278      32100.035      120054.21      39.438754      39.438754      77.184665          16000 
   3948000   4455.4648      902305.38      6832.4474      898500.7       900092.31      908323.13      53113.131      3890.3305      4087.176       9214.0485      23022.397      32236.445      119809.91      39.411984      39.411984      77.132273          16000 
   3949000   4430.9826      906454.04      6839.6425      900173.43      906162.19      913026.51      55314.126     -9154.2396      48.222888      9163.4185      23104.301      32267.719      119752.87      39.405729      39.405729      77.120032          16000 
   3950000   4488.254       904162.99      6846.8391      902136.97      901154.47      909197.54      52578.682      1203.7335     -3065.8756      9281.8577      23000.041      32281.899      119724.68      39.402637      39.402637      77.113979          16000 
   3951000   4460.8303      899884.86      6854.0353      898469.74      902510.1       898674.72      56760.247      556.89252      3444.9788      9225.1444      23000.438      32225.582      119821.87      39.413296      39.413296      77.13484           16000 
   3952000   4477.5869      894408.35      6861.2329      894961.51      895856.38      892407.16      56178.206     -1614.422       4329.8171      9259.7978      22884.664      32144.461      119966.29      39.429124      39.429124      77.165817          16000 
   3953000   4506.8847      903767.43      6868.4298      902291.54      904014.04      904996.7       56410.774      476.966        291.57425      9320.3866      22912.617      32233.004      119806.51      39.411612      39.411612      77.131544          16000 
   3954000   4494.2473      901794.24      6875.6267      899578.7       900410.24      905393.77      55961.863      6690.09       -3684.3557      9294.2519      22958.8        32253.052      119770.79      39.407695      39.407695      77.123879          16000 
   3955000   4461.7422      899916.94      6882.8247      900590.18      900153.69      899006.95      52367.518      5658.3289     -5178.2514      9227.0304      22954.401      32181.432      119897.57      39.421594      39.421594      77.151081          16000 
   3956000   4489.4608      895334.14      6890.0202      887277.21      892975.7       905749.51      54124.409      4092.4047      2713.9075      9284.3533      22880.479      32164.832      119926.87      39.424805      39.424805      77.157365          16000 
   3957000   4493.965       902136.85      6897.2156      898733.76      901805.76      905871.03      54841.867     -3132.1405     -3356.3686      9293.6681      22979.69       32273.358      119732.97      39.403546      39.403546      77.115759          16000 
   3958000   4504.191       899024.25      6904.4118      903563.42      892492.72      901016.62      51330.998      7159.641      -2224.6401      9314.816       22913.446      32228.262      119812.08      39.412223      39.412223      77.13274           16000 
   3959000   4510.878       898475.11      6911.6048      891368.88      899316.17      904740.29      54756.405     -664.71206      236.24203      9328.6448      22844.036      32172.681      119907.75      39.42271       39.42271       77.153265          16000 
   3960000   4518.8662      895829.48      6918.7994      893962.41      890793.18      902732.86      54390.443      1762.5446      766.16793      9345.1648      22831.587      32176.752      119899.02      39.421753      39.421753      77.151392          16000 
   3961000   4456.7643      902767.62      6925.9942      902028.77      900674.7       905599.39      47582.189      2489.5228     -5412.0742      9216.736       23043.928      32260.664      119747.73      39.405166      39.405166      77.118929          16000 
   3962000   4547.5676      902339.96      6933.1881      898337.71      899070.73      909611.43      52683.692      5127.973      -11201.911      9404.5201      22853.564      32258.084      119750.92      39.405516      39.405516      77.119614          16000 
   3963000   4515.8612      895315.47      6940.3799      890610.6       891294.16      904041.64      52650.424     -973.99424     -2559.8846      9338.9503      22822.384      32161.335      119923.75      39.424464      39.424464      77.156696          16000 
   3964000   4489.0614      905614.37      6947.5754      903478.31      905446.15      907918.64      52046.232      1845.8231      2126.9099      9283.5274      22970.87       32254.397      119757.24      39.406208      39.406208      77.12097           16000 
   3965000   4506.0789      908372.48      6954.7715      907518.84      910453.02      907145.59      54917.483     -559.49652     -1273.5781      9318.7202      23007.995      32326.715      119628.8       39.392116      39.392116      77.093389          16000 
   3966000   4483.5672      890203.88      6961.9658      887352.98      886292.23      896966.43      55818.149      847.97953     -1480.3766      9272.1652      22757.149      32029.314      120156.26      39.449926      39.449926      77.206529          16000 
   3967000   4455.7898      897541.13      6969.1613      896960.79      892341.08      903321.53      57611.781     -2840.7574     -2468.1935      9214.7205      22912.202      32126.923      119979.43      39.430564      39.430564      77.168635          16000 
   3968000   4519.7181      897251.8       6976.3536      900105.86      893435.85      898213.68      50586.747     -5832.2185     -1157.2608      9346.9265      22846.159      32193.085      119861.29      39.417617      39.417617      77.143298          16000 
   3969000   4485.9558      897756.11      6983.5491      894303.84      894637.59      904326.89      51495.998     -3871.7633      3301.6753      9277.1049      22870.081      32147.186      119941.25      39.426381      39.426381      77.160448          16000 
   3970000   4484.9981      902472.32      6990.7441      896420.91      900523.61      910472.44      55230.423      1809.6616      163.6935       9275.1243      23001.013      32276.138      119711.46      39.401186      39.401186      77.111141          16000 
   3971000   4474.7449      903445.96      6997.9421      902082.55      899254.67      909000.65      55729.665     -1662.722      -3506.523       9253.9203      23007.855      32261.775      119734.64      39.40373       39.40373       77.116119          16000 
   3972000   4465.843       894044.56      7005.1398      893775.14      893581.2       894777.35      53518.973      361.85761     -3135.2044      9235.511       22900.164      32135.675      119959.01      39.428327      39.428327      77.164258          16000 
   3973000   4507.6318      906027.39      7012.3357      902292.79      907346.98      908442.4       51774.426     -2344.066       3455.7076      9321.9317      22963.711      32285.642      119690.13      39.398846      39.398846      77.106562          16000 
   3974000   4452.2         899948.33      7019.5345      894369.45      896784.05      908691.49      49641.41      -3616.4032      2953.9425      9207.2968      22956.427      32163.724      119906         39.422518      39.422518      77.152889          16000 
   3975000   4491.1833      897368.89      7026.7297      897618.12      897794.6       896693.95      51392.296     -132.34536     -1107.8639      9287.9155      22908.337      32196.253      119847.12      39.416064      39.416064      77.140257          16000 
   3976000   4470.245       893529.48      7033.9278      891761.59      891862.67      896964.17      49922.926      5152.1762     -1009.8556      9244.6145      22858.489      32103.103      120011.25      39.434049      39.434049      77.175456          16000 
   3977000   4510.1897      901859.08      7041.1262      901572.92      892124.87      911879.46      49888.769      575.00916     -5112.2776      9327.2215      22901.521      32228.742      119787.16      39.40949       39.40949       77.127392          16000 
   3978000   4483.9108      905240.41      7048.3218      901329.77      901591.32      912800.14      53196.768     -3421.3273      1185.6024      9272.8758      23009.548      32282.424      119690.3       39.398865      39.398865      77.106597          16000 
   3979000   4491.0638      897467.83      7055.5199      896953.93      893750.11      901699.44      56692.787      5659.3878     -719.21033      9287.6685      22856.325      32143.993      119935.77      39.425781      39.425781      77.159274          16000 
   3980000   4509.6472      897248.78      7062.7173      892298.08      894513         904935.24      57225.057     -4030.2835      3008.488       9326.0994      22843.304      32169.403      119887.99      39.420544      39.420544      77.149025          16000 
   3981000   4485.0375      903157.91      7069.9199      896872.61      901824.04      910777.08      57817.058     -5610.8743      6604.4464      9275.2059      22986.799      32262.005      119722.79      39.402429      39.402429      77.113573          16000 
   3982000   4460.8135      903378.11      7077.1154      898188.17      903997.59      907948.56      54953.551      500.48612     -1520.6927      9225.1098      23026.099      32251.209      119741.97      39.404533      39.404533      77.117691          16000 
   3983000   4462.6933      900730.9       7084.3103      894875.04      896737.59      910580.07      58110.056     -959.21429     -1678.8795      9228.9972      22932.381      32161.378      119900.04      39.421864      39.421864      77.15161           16000 
   3984000   4468.3834      898263.34      7091.506       901237.5       897494.76      896057.75      57993.093      332.19699      7114.9612      9240.7646      22933.772      32174.537      119876.82      39.41932       39.41932       77.146631          16000 
   3985000   4494.2328      901161.79      7098.7026      898928.08      899546.38      905010.91      57262.69      -3159.4937     -2546.7534      9294.2221      22928.512      32222.734      119789.98      39.409799      39.409799      77.127996          16000 
   3986000   4509.8976      891542.08      7105.9009      885888.22      885683.96      903054.06      54456.224     -4510.8486     -2300.0272      9326.6174      22734.08       32060.697      120077.23      39.441275      39.441275      77.189598          16000 
   3987000   4461.4178      900977.95      7113.1002      899517.27      898819.55      904597.02      57419.456      9369.0134      1267.1665      9226.3594      22976.7        32203.06       119821.43      39.413248      39.413248      77.134746          16000 
   3988000   4529.767       904470.56      7120.2998      903300.43      903848.91      906262.33      50740.307      10974.704      2184.8156      9367.7079      22912.724      32280.432      119683.4       39.398108      39.398108      77.105116          16000 
   3989000   4489.0572      901563.61      7127.5021      899274.91      900744.92      904671         51670.634     -6455.9356     -4390.0224      9283.5187      22926.501      32210.019      119808.52      39.411832      39.411832      77.131976          16000 
   3990000   4463.6726      902228.38      7134.7018      901050.7       897605.15      908029.29      51744.006     -499.47443      1148.6391      9231.0226      22965.285      32196.308      119828.87      39.414064      39.414064      77.136343          16000 
   3991000   4489.7025      892366.98      7141.9053      883657.58      887212.14      906231.23      54731.507     -636.4053       4978.7327      9284.8531      22825.779      32110.632      119981.39      39.430779      39.430779      77.169055          16000 
   3992000   4472.3372      899801.36      7149.1069      898111.84      898097.62      903194.6       53486.141      2220.4104     -3898.916       9248.9411      22944.2        32193.141      119833.06      39.414523      39.414523      77.137242          16000 
   3993000   4447.954       912610.66      7156.3075      906410.19      912657.51      918764.28      56518.218     -7677.5181     -1971.6984      9198.5159      23145.647      32344.163      119563.68      39.384966      39.384966      77.079397          16000 
   3994000   4451.7682      897962.21      7163.5069      894673.42      897658.3       901554.92      51484.285     -3872.9442      6973.1204      9206.4038      22986.521      32192.925      119831.78      39.414382      39.414382      77.136966          16000 
   3995000   4464.5818      903494.9       7170.7041      898426.14      901479.59      910578.99      55478.339      1881.0801     -1665.797       9232.9028      22977.955      32210.858      119799.6       39.410854      39.410854      77.13006           16000 
   3996000   4444.6546      897527.47      7177.9027      897592.46      892879.33      902110.61      51236.542      2383.8327     -8207.8078      9191.6926      22945.58       32137.273      119928.95      39.425033      39.425033      77.15781           16000 
   3997000   4472.2732      896854.15      7185.1033      896387.54      895235.71      898939.19      53244.084      6217.2585      3188.8177      9248.8089      22901.91       32150.719      119902.17      39.422099      39.422099      77.152068          16000 
   3998000   4474.2814      900992.85      7192.3055      900816.56      895208.61      906953.39      52521.338      1539.8079      4614.8351      9252.9619      22982.102      32235.063      119751.34      39.405561      39.405561      77.119703          16000 
   3999000   4426.1294      908483.74      7199.5069      903158.8       906470.34      915822.1       50906.445      2921.8674     -4850.9746      9153.3819      23120.172      32273.554      119683.04      39.398068      39.398068      77.105038          16000 
   4000000   4468.6333      903975.92      7206.7173      899481.4       900937.18      911509.18      54479.611      750.43781     -6273.0874      9241.2813      22934.429      32175.71       119857.54      39.417206      39.417206      77.142493          16000 
Loop time of 7206.72 on 8 procs for 1000000 steps with 16000 atoms

Performance: 5.994 ns/day, 4.004 hours/ns, 138.759 timesteps/s
58.4% CPU use with 1 MPI tasks x 8 OpenMP threads

MPI task timing breakdown:
Section |  min time  |  avg time  |  max time  |%varavg| %total
---------------------------------------------------------------
Pair    | 6901.6     | 6901.6     | 6901.6     |   0.0 | 95.77
Neigh   | 14.619     | 14.619     | 14.619     |   0.0 |  0.20
Comm    | 46.63      | 46.63      | 46.63      |   0.0 |  0.65
Output  | 1.4401     | 1.4401     | 1.4401     |   0.0 |  0.02
Modify  | 216.96     | 216.96     | 216.96     |   0.0 |  3.01
Other   |            | 25.48      |            |       |  0.35

Nlocal:          16000 ave       16000 max       16000 min
Histogram: 1 0 0 0 0 0 0 0 0 0
Nghost:          15599 ave       15599 max       15599 min
Histogram: 1 0 0 0 0 0 0 0 0 0
Neighs:              0 ave           0 max           0 min
Histogram: 1 0 0 0 0 0 0 0 0 0
FullNghs:  1.91234e+06 ave 1.91234e+06 max 1.91234e+06 min
Histogram: 1 0 0 0 0 0 0 0 0 0

Total # of neighbors = 1912338
Ave neighs/atom = 119.52112
Neighbor list builds = 34762
Dangerous builds = 0
Total wall time: 8:09:17
