
atom_style atomic
units metal
boundary p p p
#atom_modify sort 0 0.0
newton on

read_data data.lammps
Reading data file ...
  triclinic box = (0 0 0) to (4.3790145 4.3790145 4.3790145) with tilt (-0 0 0)
  1 by 1 by 1 MPI processor grid
  reading atoms ...
  8 atoms
  read_data CPU = 0.003 seconds
replicate 10 10 20
Replicating atoms ...
  triclinic box = (0 0 0) to (43.790145 43.790145 87.58029) with tilt (-0 0 0)
  1 by 1 by 1 MPI processor grid
  16000 atoms
  replicate CPU = 0.019 seconds

### interactions

pair_style flare
pair_coeff * * lmp.flare
Reading potential file lmp.flare with DATE: Thu

# compute unc all flare/std/atom L_inv_lmp.flare sparse_desc_lmp.flare
# compute MaxUnc all reduce max c_unc

mass 1 12.011000
mass 2 28.085000

thermo_style custom step temp press cpu pxx pyy pzz pxy pxz pyz ke pe etotal vol lx ly lz atoms    #c_MaxUnc
thermo 1000
timestep 0.0005
restart 100000 restart_*.dat

#################### Equilibrate at P and T_es ##############################
velocity all create $T 41928459 rot yes dist gaussian
velocity all create 3400 41928459 rot yes dist gaussian
fix mom all momentum 1000 linear 1 1 1 angular

fix 1 all npt temp $T $T $(100.0*dt) iso $P $P $(1000.0*dt)
fix 1 all npt temp 3400 $T $(100.0*dt) iso $P $P $(1000.0*dt)
fix 1 all npt temp 3400 3400 $(100.0*dt) iso $P $P $(1000.0*dt)
fix 1 all npt temp 3400 3400 0.050000000000000002776 iso $P $P $(1000.0*dt)
fix 1 all npt temp 3400 3400 0.050000000000000002776 iso 300000 $P $(1000.0*dt)
fix 1 all npt temp 3400 3400 0.050000000000000002776 iso 300000 300000 $(1000.0*dt)
fix 1 all npt temp 3400 3400 0.050000000000000002776 iso 300000 300000 0.5
dump 1 all custom 1000 1equil.bin id type x y z vx vy vz
run   10000 # report performance
Neighbor list info ...
  update every 1 steps, delay 10 steps, check yes
  max neighbors/atom: 2000, page size: 100000
  master list distance cutoff = 6
  ghost atom cutoff = 6
  binsize = 6, bins = 8 8 15
  1 neighbor lists, perpetual/occasional/extra = 1 0 0
  (1) pair flare/kk, perpetual
      attributes: full, newton on, kokkos_device
      pair build: full/bin/kk/device
      stencil: full/bin/3d
      bin: kk/device
Per MPI rank memory allocation (min/avg/max) = 15.9 | 15.9 | 15.9 Mbytes
   Step          Temp          Press           CPU            Pxx            Pyy            Pzz            Pxy            Pxz            Pyz           KinEng         PotEng         TotEng         Volume           Lx             Ly             Lz          Atoms   
         0   3400           63428.998      0              63090.392      63583.36       63613.243     -471.7975       212.49693     -533.43026      7031.3124     -4109.4047      2921.9077      167941.93      43.790145      43.790145      87.58029           16000 
      1000   3380.6614      299578.26      6.4035392      300021.12      297642.05      301071.62     -1310.8613      735.05246      313.89843      6991.3195      4506.6751      11497.995      156175.21      42.742577      42.742577      85.485154          16000 
      2000   3389.211       296602.18      12.786397      296721.87      296958.39      296126.26     -425.17234     -513.30709     -761.30623      7009.0004      4404.9701      11413.971      156261.54      42.750451      42.750451      85.500902          16000 
      3000   3389.4824      301026.21      19.169067      299697.14      301156.77      302224.71     -1025.6334      582.003        2872.037       7009.5616      4334.8478      11344.409      156039.33      42.730177      42.730177      85.460355          16000 
      4000   3418.1052      298426.21      25.551739      298175.58      298654.07      298448.98      27.626816      2960.0103      628.27001      7068.7545      4425.4498      11494.204      156253.02      42.749674      42.749674      85.499349          16000 
      5000   3363.5528      299356.08      31.932789      300289.78      298958.03      298820.41     -2016.7057     -2381.3705     -1051.2825      6955.9384      4395.6574      11351.596      156093.12      42.735087      42.735087      85.470173          16000 
      6000   3419.5285      299400.21      38.313772      299425.16      298741.15      300034.33     -337.82771     -771.87271     -879.34294      7071.698       4448.2923      11519.99       156221.93      42.746838      42.746838      85.493677          16000 
      7000   3408.2588      301696.58      44.695041      300719.37      302498.65      301871.73     -752.68577      741.65795     -340.49502      7048.3918      4268.7187      11317.111      156067.68      42.732765      42.732765      85.46553           16000 
      8000   3412.2138      298839.64      51.076069      297743.99      300216         298558.92      498.88208      308.1895       2254.3651      7056.571       4405.6292      11462.2        156210.9       42.745832      42.745832      85.491665          16000 
      9000   3398.9085      298185.27      57.457671      299296.87      298232.46      297026.48      2467.7761     -1378.5924      51.776095      7029.0552      4357.6665      11386.722      156223.31      42.746965      42.746965      85.493929          16000 
     10000   3388.3068      297023.76      63.838141      296665.13      296277.16      298129        -535.35298      1653.0543     -2667.8404      7007.1305      4335.3377      11342.468      156339.58      42.757566      42.757566      85.515133          16000 
Loop time of 63.8382 on 8 procs for 10000 steps with 16000 atoms

Performance: 6.767 ns/day, 3.547 hours/ns, 156.646 timesteps/s
60.8% CPU use with 1 MPI tasks x 8 OpenMP threads

MPI task timing breakdown:
Section |  min time  |  avg time  |  max time  |%varavg| %total
---------------------------------------------------------------
Pair    | 60.905     | 60.905     | 60.905     |   0.0 | 95.41
Neigh   | 0.086717   | 0.086717   | 0.086717   |   0.0 |  0.14
Comm    | 0.34359    | 0.34359    | 0.34359    |   0.0 |  0.54
Output  | 0.012783   | 0.012783   | 0.012783   |   0.0 |  0.02
Modify  | 2.2344     | 2.2344     | 2.2344     |   0.0 |  3.50
Other   |            | 0.2553     |            |       |  0.40

Nlocal:          16000 ave       16000 max       16000 min
Histogram: 1 0 0 0 0 0 0 0 0 0
Nghost:          13622 ave       13622 max       13622 min
Histogram: 1 0 0 0 0 0 0 0 0 0
Neighs:              0 ave           0 max           0 min
Histogram: 1 0 0 0 0 0 0 0 0 0
FullNghs:  1.47201e+06 ave 1.47201e+06 max 1.47201e+06 min
Histogram: 1 0 0 0 0 0 0 0 0 0

Total # of neighbors = 1472006
Ave neighs/atom = 92.000375
Neighbor list builds = 275
Dangerous builds = 0
run  990000
Per MPI rank memory allocation (min/avg/max) = 16.08 | 16.08 | 16.08 Mbytes
   Step          Temp          Press           CPU            Pxx            Pyy            Pzz            Pxy            Pxz            Pyz           KinEng         PotEng         TotEng         Volume           Lx             Ly             Lz          Atoms   
     10000   3388.3068      297023.76      0              296665.13      296277.16      298129        -535.35298      1653.0543     -2667.8404      7007.1305      4335.3377      11342.468      156339.58      42.757566      42.757566      85.515133          16000 
     11000   3417.7864      295791.1       6.3813549      295825.35      295532.37      296015.57      819.38666      789.21926      637.36543      7068.0953      4344.8135      11412.909      156394.65      42.762586      42.762586      85.525172          16000 
     12000   3388.5258      303719.69      12.764253      302561.42      304358.61      304239.03      1463.3006      1999.9959      281.77335      7007.5835      4372.998       11380.581      155934.47      42.720603      42.720603      85.441206          16000 
     13000   3437.8867      300418.44      19.145556      299081.45      301605.84      300568.02      3571.4618      1070.2865     -2561.6454      7109.6634      4408.8669      11518.53       156129.93      42.738445      42.738445      85.476891          16000 
     14000   3377.2011      301098.28      25.528011      300887.57      301006.26      301401.02      1495.3779     -1788.7376     -1051.6886      6984.1634      4372.0932      11356.257      156045.18      42.730712      42.730712      85.461423          16000 
     15000   3408.4837      298001.17      31.910303      296888.82      298129.22      298985.47      236.46811      1356.1815      711.30157      7048.8569      4372.3461      11421.203      156252.71      42.749646      42.749646      85.499292          16000 
     16000   3414.9713      296337.05      38.293045      296193.69      296318.36      296499.11     -1280.7584     -1858.4031      1153.0589      7062.2735      4351.7278      11414.001      156371.78      42.760502      42.760502      85.521003          16000 
     17000   3373.2908      297485.72      44.675228      295770.36      298634.3       298052.49     -488.58078     -2623.9265     -30.746883      6976.077       4307.343       11283.42       156241.93      42.748662      42.748662      85.497325          16000 
     18000   3416.6194      298555.6       51.058747      299502.07      296859.62      299305.11      781.22132      248.37688     -1201.788       7065.6819      4381.8735      11447.555      156250.44      42.749439      42.749439      85.498877          16000 
     19000   3432.6658      301886.45      57.440878      302516.27      302181.8       300961.29      1972.9455      622.35046      326.65076      7098.8664      4457.4866      11556.353      156086.91      42.73452       42.73452       85.46904           16000 
     20000   3417.9174      304788.14      63.82302       305085.97      305215.84      304062.63      1400.9961     -1520.9486     -3397.9513      7068.3663      4422.7685      11491.135      155879.61      42.715593      42.715593      85.431186          16000 
     21000   3402.2309      306548.78      70.204228      307686.12      305699.66      306260.56      3660.2241      532.47937      176.26879      7035.926       4387.6676      11423.594      155715.91      42.700634      42.700634      85.401269          16000 
     22000   3444.5831      302060.76      76.584387      302686.85      303215.1       300280.33      43.616875     -3138.4336     -1441.1785      7123.5117      4442.3186      11565.83       156035.47      42.729825      42.729825      85.45965           16000 
     23000   3392.7592      302456.86      82.963734      304107.64      301246.35      302016.6      -3083.9659      186.84319      1528.8656      7016.3382      4350.4159      11366.754      155998.61      42.72646       42.72646       85.45292           16000 
     24000   3392.151       297054.76      89.343826      296948.74      296135.04      298080.52     -2540.6492     -2066.8629      679.27903      7015.0803      4427.9562      11443.037      156275.77      42.751749      42.751749      85.503498          16000 
     25000   3343.5254      296891.2       95.725434      297512.35      296742.82      296418.45      1549.9276      2757.233       522.04794      6914.521       4314.7797      11229.301      156172.39      42.74232       42.74232       85.48464           16000 
     26000   3432.4121      296347.51      102.10629      295420.92      297192.38      296429.23      407.07847      1773.0078      141.08581      7098.3418      4341.2996      11439.641      156436.95      42.766441      42.766441      85.532882          16000 
     27000   3398.6244      296844.69      108.48754      297611.4       296013.64      296909.03     -345.78693      2231.1189     -1239.2893      7028.4677      4325.1026      11353.57       156324.77      42.756217      42.756217      85.512434          16000 
     28000   3418.5089      296502.12      114.86853      295972.11      297318.92      296215.32     -705.22919     -3142.2315      448.30823      7069.5895      4312.5284      11382.118      156294.7       42.753475      42.753475      85.506951          16000 
     29000   3388.9705      299597.35      121.25097      299437         300050.72      299304.34      1369.2414      137.93617     -1824.936       7008.5031      4395.0117      11403.515      156158.96      42.741094      42.741094      85.482189          16000 
     30000   3390.656       302266.76      127.63325      301598.64      302644.07      302557.56      527.91715     -3698.2146      1431.7479      7011.9888      4294.5766      11306.565      155977.46      42.724529      42.724529      85.449058          16000 
     31000   3435.1615      303169.4       134.01569      302571.75      302961.18      303975.27     -193.02921      2021.395       94.969698      7104.0275      4359.9907      11464.018      155949.22      42.72195       42.72195       85.4439            16000 
     32000   3400.2441      302384.34      140.3974       300990.93      303148.65      303013.44     -972.02572      302.28027     -1021.1246      7031.8172      4356.2308      11388.048      155944.74      42.721541      42.721541      85.443083          16000 
     33000   3417.4001      301274.02      146.77966      299975.1       303169.76      300677.21      171.00749     -680.48251      284.53111      7067.2964      4361.1152      11428.412      156092.33      42.735014      42.735014      85.470029          16000 
     34000   3411.5886      298813.56      153.1625       298247.68      299946.39      298246.62     -1219.5559      1404.9525      194.13281      7055.278       4431.3212      11486.599      156237.57      42.748265      42.748265      85.496531          16000 
     35000   3381.9337      297300.92      159.54541      298989.73      296875.8       296037.23     -888.78874     -2756.4296      907.09343      6993.9507      4337.2436      11331.194      156211.94      42.745927      42.745927      85.491854          16000 
     36000   3390.081       298298.94      165.92923      299803.03      297482.48      297611.3       2853.2977      980.00577     -963.72451      7010.7995      4358.3866      11369.186      156255.38      42.749889      42.749889      85.499779          16000 
     37000   3413.6862      295225.92      172.31286      293704.09      295423.93      296549.72     -133.12877      2670.7981      2064.631       7059.6159      4427.5892      11487.205      156382.28      42.761459      42.761459      85.522918          16000 
     38000   3381.617       296470.02      178.69556      295681.68      296520.75      297207.62      920.92904     -536.06145      392.50896      6993.2957      4422.0461      11415.342      156255.86      42.749933      42.749933      85.499866          16000 
     39000   3392.0384      301146.55      185.07825      301946.78      300619.58      300873.31      376.58547     -1339.2362     -690.78611      7014.8475      4379.4184      11394.266      156032.19      42.729525      42.729525      85.45905           16000 
     40000   3399.6997      300645.01      191.46329      299830.4       300323.32      301781.3      -395.03661      1245.1623     -885.8574       7030.6914      4456.8102      11487.502      156112.09      42.736817      42.736817      85.473635          16000 
     41000   3388.5642      303353.45      197.84706      304025.51      303952.16      302082.66     -1383.3528     -107.21184     -752.77935      7007.6628      4225.7061      11233.369      155884.17      42.716009      42.716009      85.432019          16000 
     42000   3413.2548      299247.3       204.24562      299319.84      299926.31      298495.74      1718.6335      317.89538      876.73443      7058.7238      4431.2609      11489.985      156226.12      42.747221      42.747221      85.494442          16000 
     43000   3385.677       296404.68      210.54853      296963.22      297487.82      294762.98     -3388.7845      519.25318      943.16996      7001.6919      4309.5492      11311.241      156299.85      42.753944      42.753944      85.507888          16000 
     44000   3407.4863      296824.95      216.85107      296417.94      296504.91      297551.99      382.19941      289.41553     -1570.9176      7046.7943      4361.9779      11408.772      156393.95      42.762523      42.762523      85.525045          16000 
     45000   3367.3453      297047.31      223.15356      297020.1       295354.78      298767.03     -1318.3489     -400.21964     -582.89976      6963.7814      4345.6065      11309.388      156222.18      42.746862      42.746862      85.493724          16000 
     46000   3408.1293      298718.91      229.45666      298794.64      298969.7       298392.4       944.17226      600.76692     -857.56833      7048.124       4303.767       11351.891      156101.75      42.735874      42.735874      85.471747          16000 
     47000   3428.9406      303059.41      235.76058      303936.88      303305.85      301935.49      115.6117      -444.17555      875.47099      7091.1626      4458.0201      11549.183      156035.41      42.729819      42.729819      85.459638          16000 
     48000   3383.0356      305879.47      242.06284      307039.88      305900.29      304698.23     -460.72171      1228.5181      2329.0517      6996.2294      4459.8755      11456.105      155825.5       42.71065       42.71065       85.4213            16000 
     49000   3399.8562      301888.49      248.36353      301674.07      302334.54      301656.86      477.25347      390.11091      2679.607       7031.015       4482.3517      11513.367      156066.31      42.73264       42.73264       85.46528           16000 
     50000   3375.3562      299939.92      254.66701      300279.2       299932.5       299608.05      266.31569     -865.37175      4.394371       6980.3482      4368.4091      11348.757      156141.87      42.739535      42.739535      85.47907           16000 
     51000   3380.0723      295747.94      260.97206      297137.89      295116.45      294989.5       400.44457     -213.41191     -2016.3824      6990.1013      4380.5347      11370.636      156374.87      42.760783      42.760783      85.521567          16000 
     52000   3400.4675      297595.95      267.27301      297569.84      296495.21      298722.8      -1063.2198      1692.374       2038.6239      7032.2792      4313.6476      11345.927      156209.69      42.745722      42.745722      85.491445          16000 
     53000   3411.7103      296916.03      273.57606      296691.59      297044.12      297012.38     -459.36352     -156.65076     -1414.5181      7055.5296      4411.8025      11467.332      156317.42      42.755547      42.755547      85.511094          16000 
     54000   3404.2139      300503.33      279.87958      299693.6       300728.12      301088.25     -5331.5034      1145.2255     -734.2282       7040.0269      4372.1665      11412.193      156188.67      42.743804      42.743804      85.487609          16000 
     55000   3398.1995      304268.42      286.18325      305363.23      301684.82      305757.22     -2411.1148      349.11651      133.49538      7027.5888      4313.6167      11341.206      155901.13      42.717558      42.717558      85.435117          16000 
     56000   3433.2455      302014.64      292.4903       301234.99      301916.48      302892.45     -2376.8119      1248.2656     -1849.4675      7100.0653      4387.1177      11487.183      155989.63      42.72564       42.72564       85.45128           16000 
     57000   3396.4109      302878.38      298.7945       302094.04      302320.73      304220.38     -1138.9948      2581.5512      568.9481       7023.89        4469.1984      11493.088      156017         42.728139      42.728139      85.456277          16000 
     58000   3408.9924      300328.37      305.09941      299541.43      302427.42      299016.25      267.26209     -49.728458     -370.59393      7049.909       4383.4073      11433.316      156081.37      42.734014      42.734014      85.468029          16000 
     59000   3420.4425      298585.22      311.40154      299465.42      299290.86      296999.38     -949.0322       533.60454      292.15046      7073.5881      4315.4166      11389.005      156189.68      42.743897      42.743897      85.487794          16000 
     60000   3364.5094      295693.6       317.70802      295938.33      296899.37      294243.1       1722.8936     -414.94587      177.60026      6957.9166      4346.6137      11304.53       156385.34      42.761738      42.761738      85.523476          16000 
     61000   3395.743       296892.48      324.01336      297250.84      296983.73      296442.88      1508.1851     -859.04192     -1316.6992      7022.5087      4387.3287      11409.837      156281.79      42.752298      42.752298      85.504595          16000 
     62000   3391.3172      300946.19      330.31954      301851.07      299108.14      301879.37     -1666.126      -1376.3451     -2522.1147      7013.3561      4379.9278      11393.284      156073.42      42.733288      42.733288      85.466577          16000 
     63000   3432.2055      299710.82      336.62565      301452.08      298896.47      298783.9       1131.7034      1049.4531     -256.69732      7097.9144      4411.8069      11509.721      156165.73      42.741712      42.741712      85.483423          16000 
     64000   3390.982       300314.17      342.93332      301010.74      299865.32      300066.45     -2331.0084      2037.8164     -1647.6154      7012.663       4378.6393      11391.302      156120.56      42.73759       42.73759       85.475181          16000 
     65000   3431.1348      293778.27      349.23994      294841.36      293486.38      293007.07      1204.5952     -389.09404      433.52862      7095.7003      4352.3581      11448.058      156521.73      42.774165      42.774165      85.548331          16000 
     66000   3365.7433      292838.76      355.54495      292931.98      294373.34      291210.96     -728.09381     -630.08245     -1951.7014      6960.4685      4315.473       11275.941      156513.57      42.773423      42.773423      85.546845          16000 
     67000   3383.5966      298084.08      361.84815      297484.41      297517.53      299250.3       2218.6291      339.17072     -1475.889       6997.3896      4402.1122      11399.502      156225.15      42.747132      42.747132      85.494264          16000 
     68000   3403.7914      302483.84      368.15147      300775.3       303608.53      303067.69      454.6399       781.68516      823.45818      7039.1532      4383.6716      11422.825      155973.83      42.724198      42.724198      85.448396          16000 
     69000   3404.4487      301006.45      374.45507      301383.35      301345.74      300290.25     -2079.2517     -601.92062      1209.6722      7040.5124      4424.6784      11465.191      156098.28      42.735558      42.735558      85.471115          16000 
     70000   3399.5898      300166.48      380.75743      300758.43      299643.66      300097.35     -1176.2469      1316.4314     -729.64218      7030.4642      4357.0581      11387.522      156131.27      42.738568      42.738568      85.477137          16000 
     71000   3400.8255      299652.24      387.06086      300326.01      299463.29      299167.43      232.9046       158.68131     -681.34246      7033.0195      4359.8923      11392.912      156164.26      42.741578      42.741578      85.483156          16000 
     72000   3439.0169      300165.55      393.3652       301307.43      299145.51      300043.72     -523.1428       66.441343     -6.4021699      7112.0006      4374.9518      11486.952      156165.69      42.741709      42.741709      85.483417          16000 
     73000   3417.9288      303220.54      399.66856      302439.35      303805.99      303416.29     -1200.6659      673.00632      1449.941       7068.3897      4336.0714      11404.461      155925.27      42.719763      42.719763      85.439526          16000 
     74000   3432.9888      305079.44      405.97394      304873.79      306488.02      303876.5      -98.601646      173.44359      73.329914      7099.5343      4454.6945      11554.229      155941.84      42.721276      42.721276      85.442553          16000 
     75000   3408.7936      303056.93      412.27944      303736.09      302110.02      303324.67      1163.7358     -1819.4553     -720.84436      7049.4979      4372.0161      11421.514      155860.3       42.713829      42.713829      85.427657          16000 
     76000   3387.68        300136.42      418.58405      300605.64      299778.58      300025.03     -914.01456      627.95351      1567.7081      7005.8342      4428.4856      11434.32       156122.17      42.737738      42.737738      85.475476          16000 
     77000   3399.2217      299278.32      424.89004      298741.66      300031.63      299061.66     -573.68679     -1417.062      -1267.4479      7029.7028      4432.1769      11461.88       156228.6       42.747447      42.747447      85.494895          16000 
     78000   3406.4775      299324.77      431.19147      298260.31      299435.17      300278.84     -1943.6067      2901.3023      1496.7058      7044.7081      4339.3608      11384.069      156125.25      42.738019      42.738019      85.476037          16000 
     79000   3395.5478      297195.34      437.49753      297137.7       296060.4       298387.93      3569.2632      798.56618     -68.085548      7022.1052      4475.6739      11497.779      156299.6       42.753921      42.753921      85.507843          16000 
     80000   3390.7151      295321.13      443.80404      295520.03      295941.07      294502.28      655.16215      1619.2624      1989.1059      7012.111       4354.7076      11366.819      156331.18      42.756801      42.756801      85.513602          16000 
     81000   3427.2507      295388.33      450.11497      295399.03      295640.78      295125.18      567.70664      337.20525      1457.9221      7087.6678      4304.0232      11391.691      156417.32      42.764653      42.764653      85.529306          16000 
     82000   3398.1542      296454.89      456.42726      297464.67      295303.52      296596.49     -52.57333       2479.62        3729.9679      7027.4952      4401.046       11428.541      156299.45      42.753908      42.753908      85.507816          16000 
     83000   3417.9036      300165.38      462.74025      301818.37      299020.56      299657.21      980.92556     -39.171565      280.53285      7068.3377      4364.1344      11432.472      156107.97      42.736442      42.736442      85.472884          16000 
     84000   3386.2285      303547.28      469.05207      304327.48      302767.82      303546.53      1038.0507      601.27745      1194.0604      7002.8325      4344.1539      11346.986      155850.94      42.712974      42.712974      85.425947          16000 
     85000   3404.572       304311.85      475.36224      304247.41      304823.52      303864.62      782.40295     -2216.8595     -513.25913      7040.7675      4435.1808      11475.948      155918.94      42.719185      42.719185      85.43837           16000 
     86000   3358.0996      301204.36      481.67445      301797.83      299078.96      302736.3      -527.51979     -2864.1099      626.23772      6944.6609      4366.1492      11310.81       155935.2       42.72067       42.72067       85.441339          16000 
     87000   3390.8111      299237.85      487.99045      298332.64      298780.29      300600.61      1156.2504     -845.59943      2691.7186      7012.3094      4412.1678      11424.477      156192.01      42.74411       42.74411       85.48822           16000 
     88000   3389.1719      297545.08      494.31055      296983.18      296282.64      299369.43     -647.90606      557.61549     -1458.0541      7008.9196      4334.4142      11343.334      156220.89      42.746744      42.746744      85.493488          16000 
     89000   3391.3581      298560.88      500.62804      298376.63      297281.12      300024.9      -192.141       -235.17948     -2180.1744      7013.4407      4376.7447      11390.185      156243.29      42.748787      42.748787      85.497574          16000 
     90000   3410.9737      298550.65      506.94663      297910.38      298933.58      298807.99      2279.2101     -2653.4719     -411.10311      7054.0063      4312.2844      11366.291      156181.43      42.743144      42.743144      85.486288          16000 
     91000   3392.8602      297429.09      513.26359      297648.13      295401.21      299237.93      96.748005     -1858.192      -266.12957      7016.547       4391.2075      11407.754      156288.32      42.752893      42.752893      85.505785          16000 
     92000   3355.0348      295197.65      519.58163      295414.98      295032.11      295145.85     -2295.5582     -843.09779     -2529.2708      6938.3229      4371.5331      11309.856      156282.97      42.752405      42.752405      85.504811          16000 
     93000   3408.816       296411.11      525.90383      297891.49      294895.61      296446.23      2927.5131     -913.9151      -1716.2017      7049.5442      4369.3042      11418.848      156378.1       42.761078      42.761078      85.522156          16000 
     94000   3368.3982      301571.81      532.22726      301952.11      302269.48      300493.83      582.22606      636.72177      1719.0328      6965.9589      4436.0729      11402.032      155956.2       42.722588      42.722588      85.445176          16000 
     95000   3396.2836      304085.49      538.55044      303043.7       305556.7       303656.08     -1814.2596      1008.6098      1288.6341      7023.6268      4412.4834      11436.11       155948.41      42.721876      42.721876      85.443753          16000 
     96000   3390.811       301149.72      544.87482      302499.53      300050.87      300898.75     -1221.0645      365.02983      2891.8528      7012.3093      4406.2927      11418.602      156074.92      42.733425      42.733425      85.466851          16000 
     97000   3451.5297      298813.18      551.19118      298455.65      298345.78      299638.1      -1614.3623      658.44602      2665.7332      7137.8775      4421.2807      11559.158      156271.11      42.751324      42.751324      85.502647          16000 
     98000   3390.6892      297159.79      557.51228      298022.11      296909.11      296548.14      1006.7955     -813.26866      1801.0824      7012.0574      4349.1896      11361.247      156264.78      42.750746      42.750746      85.501493          16000 
     99000   3412.7042      296789.31      563.84021      295859.83      298359.31      296148.79     -5265.624       233.12747      1926.9924      7057.585       4353.0904      11410.675      156347.41      42.758281      42.758281      85.516562          16000 
    100000   3409.1536      300648.25      570.17422      300680.91      300772.58      300491.27     -2652.4341     -1362.4798     -434.95664      7050.2423      4341.1132      11391.356      156029.89      42.729315      42.729315      85.45863           16000 
    101000   3386.7803      304561.71      576.50223      304758.85      304849.44      304076.84      1416.6471      1151.2755      341.44368      7003.9735      4472.9342      11476.908      155810.11      42.709243      42.709243      85.418487          16000 
    102000   3406.998       303863.25      582.83263      304813.21      303748.84      303027.7       867.54887     -469.42956      104.68495      7045.7845      4454.6893      11500.474      155918.41      42.719136      42.719136      85.438273          16000 
    103000   3428.319       301139.44      589.16329      299972.34      301320.05      302125.94     -1765.8248     -492.43356     -1702.1118      7089.877       4438.8567      11528.734      156118.63      42.737414      42.737414      85.474829          16000 
    104000   3392.0635      299704.8       595.49297      299612.84      298983.5       300518.08      1181.7565      1436.091       48.984856      7014.8995      4383.7316      11398.631      156149.85      42.740263      42.740263      85.480526          16000 
    105000   3391.7244      297883.94      601.81633      299165.08      297374.4       297112.33      865.9181       2827.0204     -1911.4459      7014.1982      4427.8019      11442          156327.25      42.756442      42.756442      85.512885          16000 
    106000   3385.6115      299233.94      608.14223      299328.25      298806.08      299567.48     -1373.6178      2280.4366     -2160.1971      7001.5566      4337.3687      11338.925      156131.94      42.738629      42.738629      85.477259          16000 
    107000   3408.8775      300396.81      614.47287      299922.02      301389.77      299878.64      1827.6651      2074.3958     -494.851        7049.6714      4503.9768      11553.648      156194.18      42.744308      42.744308      85.488616          16000 
    108000   3389.1163      299610.75      620.79371      299322.05      299625.35      299884.84      43.548471      1289.2055      348.33095      7008.8046      4355.8467      11364.651      156133.46      42.738768      42.738768      85.477535          16000 
    109000   3375.7793      301274.06      627.11467      300837.71      301429.76      301554.73      476.93456      162.45151      3035.9986      6981.2231      4387.428       11368.651      156096.31      42.735378      42.735378      85.470756          16000 
    110000   3419.2874      299269.94      633.43089      299786.64      299620.66      298402.52      901.60274      2897.263       1261.4201      7071.1994      4499.0182      11570.218      156186.61      42.743617      42.743617      85.487233          16000 
    111000   3385.5754      300692.03      639.73825      301431.07      301731.13      298913.89     -1816.8257      2366.3911     -1620.9615      7001.4818      4371.4543      11372.936      156092.75      42.735053      42.735053      85.470105          16000 
    112000   3402.3894      301400.22      646.04505      301512.32      301063.89      301624.47     -1072.869      -532.77658      1771.4976      7036.2537      4406.0119      11442.266      156083.88      42.734243      42.734243      85.468486          16000 
    113000   3382.2181      301093.55      652.34929      301395.78      301258.82      300626.05     -3829.9242      939.52861      1208.1554      6994.5388      4359.2141      11353.753      156018.39      42.728265      42.728265      85.456531          16000 
    114000   3412.4323      296227.18      658.65342      296033.24      296697.31      295951         1043.8058      1848.0926     -695.2951       7057.0228      4403.6856      11460.708      156324.01      42.756147      42.756147      85.512294          16000 
    115000   3390.9051      296545.21      664.95797      296122.52      295879.17      297633.94      1343.9588      2845.2462      424.05625      7012.5039      4323.7426      11336.247      156224.31      42.747055      42.747055      85.494111          16000 
    116000   3377.3014      298279.3       671.26263      299325.45      297777.18      297735.27      438.3955      -2632.4119     -697.5956       6984.371       4385.5255      11369.897      156147.51      42.740049      42.740049      85.480099          16000 
    117000   3422.1725      297779.34      677.56953      297183.76      298312.5       297841.77      1933.5686      1930.3291      275.23903      7077.166       4402.3442      11479.51       156391.38      42.762289      42.762289      85.524578          16000 
    118000   3378.5824      296395.17      683.87754      295828.45      297646.86      295710.2      -596.6096      -2686.9428      501.78011      6987.0201      4328.5774      11315.598      156319.85      42.755768      42.755768      85.511536          16000 
    119000   3388.1964      297210.56      690.18331      298819.52      295180.73      297631.44      906.77897     -1068.3547     -373.98355      7006.9021      4457.3051      11464.207      156352.11      42.758709      42.758709      85.517418          16000 
    120000   3395.0405      300899.74      696.48934      300377.24      300336.91      301985.06     -1243.5199     -432.13092     -682.98557      7021.0561      4389.7768      11410.833      156154.01      42.740642      42.740642      85.481285          16000 
    121000   3384.7269      302898.26      702.79552      302210.35      304805.76      301678.66     -835.47613      956.44753     -1127.2477      6999.727       4395.6237      11395.351      155990.07      42.72568       42.72568       85.451361          16000 
    122000   3374.3924      303733.42      709.10166      305358.21      302301.43      303540.63     -858.59209     -336.73958      911.91735      6978.3551      4414.687       11393.042      155935.76      42.720721      42.720721      85.441443          16000 
    123000   3389.5229      301255.32      715.40853      303501.39      298997.69      301266.89      2532.0314      1521.0031      2960.8254      7009.6455      4416.6321      11426.278      156069.99      42.732976      42.732976      85.465952          16000 
    124000   3380.0412      300245.54      721.71597      299842.88      300082.03      300811.69      513.71113     -1373.5088     -2177.7068      6990.037       4447.0078      11437.045      156145.7       42.739885      42.739885      85.479769          16000 
    125000   3399.0494      291437.14      728.02351      291102.49      291874.51      291334.41     -4530.159      -2280.6712     -686.50863      7029.3465      4311.1608      11340.507      156600.49      42.781339      42.781339      85.562677          16000 
    126000   3407.7722      295772.54      734.33161      294760.9       296588.78      295967.92      1065.5922     -2383.7018     -1532.3975      7047.3856      4316.1405      11363.526      156350.75      42.758585      42.758585      85.51717           16000 
    127000   3413.2962      298207.65      740.63819      297653.16      298988.2       297981.57      1580.3137     -1178.7687     -835.24998      7058.8093      4305.2469      11364.056      156237.51      42.74826       42.74826       85.496519          16000 
    128000   3371.2506      300017.17      746.95455      298825.7       299512.72      301713.08      681.7006      -450.28361      507.99459      6971.8576      4350.6715      11322.529      156063.02      42.732339      42.732339      85.464679          16000 
    129000   3395.9078      301107.78      753.27069      299659.42      301854.32      301809.61      786.96476     -1890.2681      2227.555       7022.8495      4402.6309      11425.48       156110.16      42.736641      42.736641      85.473283          16000 
    130000   3388.7398      302087.33      759.58708      302748.73      301612.98      301900.28      901.53302     -831.78856      905.6592       7008.0259      4444.1753      11452.201      155970.96      42.723935      42.723935      85.44787           16000 
    131000   3421.5658      304156.48      765.90274      305286.26      302177.68      305005.49     -287.71145      436.77106     -191.70339      7075.9112      4472.0498      11547.961      156014.26      42.727889      42.727889      85.455778          16000 
    132000   3417.0533      301593.56      772.21783      302106.94      301591.81      301081.92      2226.5794      1948.1244      1873.6201      7066.5792      4282.2604      11348.84       155940.71      42.721173      42.721173      85.442346          16000 
    133000   3403.5502      301238.55      778.54057      303161.45      299924.19      300630        -770.8488       2525.9806     -797.99485      7038.6544      4377.6395      11416.294      156140.22      42.739385      42.739385      85.478769          16000 
    134000   3405.746       296293.48      784.86264      295372.44      296670.4       296837.61     -3027.8137      2896.4429     -2413.9026      7043.1952      4316.5589      11359.754      156323.89      42.756136      42.756136      85.512272          16000 
    135000   3400.8657      296535.94      791.18469      295593         296554.67      297460.15      422.04898      583.91628     -649.14702      7033.1027      4435.1612      11468.264      156330.41      42.756731      42.756731      85.513462          16000 
    136000   3391.826       298192.05      797.50615      297034.51      300561.33      296980.31      1051.5462     -373.59646     -3603.7835      7014.4083      4330.1053      11344.514      156202.02      42.745022      42.745022      85.490045          16000 
    137000   3404.0415      297988.92      803.82835      296993.36      297183.71      299789.69      399.4926       1607.365      -2895.1286      7039.6704      4412.4144      11452.085      156305.73      42.754481      42.754481      85.508962          16000 
    138000   3378.6501      299031.73      810.15221      299699.52      299486.74      297908.94      2288.5116      1178.57        1429.6052      6987.16        4403.0465      11390.207      156195.56      42.744433      42.744433      85.488866          16000 
    139000   3402.2165      300684.03      816.47631      302999         298745.73      300307.35     -1391.6203      1681.3667      2326.3408      7035.8961      4380.7272      11416.623      156149.53      42.740234      42.740234      85.480468          16000 
    140000   3395.9248      299224.78      822.79785      298338.18      299156.43      300179.74      1045.5938     -578.35807     -605.1213       7022.8847      4383.5288      11406.414      156111.85      42.736796      42.736796      85.473592          16000 
    141000   3445.1156      298352.4       829.12224      298661.89      299473.53      296921.78     -359.65009      3010.3525      2046.2149      7124.613       4380.0195      11504.632      156259.76      42.750289      42.750289      85.500577          16000 
    142000   3384.3882      300615.76      835.44413      301493.91      300125.07      300228.29      648.75069      1297.4525      2432.1288      6999.0268      4375.0468      11374.074      156082.45      42.734113      42.734113      85.468225          16000 
    143000   3423.1515      299458.42      841.76717      300344.37      299256.5       298774.4       1429.8471      1231.5971     -565.05887      7079.1904      4364.3654      11443.556      156133.08      42.738733      42.738733      85.477466          16000 
    144000   3423.7456      299590.55      848.09042      299503.85      300430.48      298837.32     -1277.3874      493.36685     -1702.0022      7080.419       4361.7721      11442.191      156144.68      42.739792      42.739792      85.479584          16000 
    145000   3440.4688      307047.84      854.41657      308455.21      306801.47      305886.84      842.37666     -2527.5545      845.61125      7115.0033      4347.8653      11462.869      155727.7       42.701712      42.701712      85.403424          16000 
    146000   3411.5918      302733.41      860.73917      304162.86      300764.12      303273.24      1974.3075     -354.66083      2443.7302      7055.2847      4448.5224      11503.807      155997.2       42.726331      42.726331      85.452662          16000 
    147000   3402.6382      299719.73      867.06473      300392.1       299372.37      299394.72      545.35278      1929.3709      533.84229      7036.7683      4386.0683      11422.837      156178.06      42.742836      42.742836      85.485673          16000 
    148000   3408.3285      299040.74      873.39104      299120.06      299359.31      298642.85     -221.67847      745.84441      1915.1072      7048.536       4401.5466      11450.083      156215.11      42.746217      42.746217      85.492433          16000 
    149000   3390.8522      300083.98      879.7142       299798.11      300749.1       299704.73     -1176.4004      1683.8893      2339.2509      7012.3944      4372.4844      11384.879      156166.05      42.741742      42.741742      85.483483          16000 
    150000   3399.1574      296195.04      886.03618      296784.04      296194.32      295606.76     -1229.9983     -877.31506      1936.7344      7029.5698      4270.5503      11300.12       156245.59      42.748997      42.748997      85.497994          16000 
    151000   3391.5484      298341.09      892.35301      298177.28      298189.3       298656.7      -295.61131     -734.35992     -395.90418      7013.8343      4369.2767      11383.111      156164.67      42.741615      42.741615      85.48323           16000 
    152000   3398.3845      302651.37      898.67499      301788.22      302498.15      303667.76      553.05188     -2808.7684     -1308.3901      7027.9715      4410.9378      11438.909      155998.11      42.726414      42.726414      85.452828          16000 
    153000   3445.3794      302123.18      904.99844      301452.78      303287.94      301628.83      146.26868      1431.9929      1259.7494      7125.1585      4404.3998      11529.558      156093.37      42.735109      42.735109      85.470219          16000 
    154000   3396.9098      302976.1       911.32075      302495.22      301658.98      304774.08     -787.3593       1059.6027     -1249.4456      7024.9218      4354.6788      11379.601      155969.97      42.723845      42.723845      85.44769           16000 
    155000   3404.8588      303593.07      917.64425      304295.45      303801.78      302681.98     -2370.8664      456.73403     -1486.5881      7041.3606      4444.4824      11485.843      155925.55      42.719789      42.719789      85.439577          16000 
    156000   3361.3837      301633.08      923.96587      301110.03      301601.6       302187.61      1911.9918      869.08581     -2196.1444      6951.4527      4455.9125      11407.365      155998.81      42.726478      42.726478      85.452956          16000 
    157000   3417.3726      298489.47      930.291        298369.36      299088.29      298010.76      282.45181      369.51866     -909.89271      7067.2396      4342.1479      11409.387      156261.54      42.750451      42.750451      85.500902          16000 
    158000   3372.795       294487.08      936.61751      293847.47      294948.47      294665.31     -361.90259     -416.60899     -2140.1254      6975.0515      4337.7811      11312.833      156428.31      42.765654      42.765654      85.531309          16000 
    159000   3389.055       296171.73      942.94134      295934.01      297532.06      295049.13      8.246155       2369.5907     -590.97246      7008.6778      4364.8972      11373.575      156410.7       42.764049      42.764049      85.528099          16000 
    160000   3411.13        298521.84      949.26833      299397.85      299034.89      297132.78      1152.184      -2683.983       875.45274      7054.3296      4369.2343      11423.564      156244.43      42.748891      42.748891      85.497782          16000 
    161000   3396.1137      300583.82      955.59362      301553.07      300408.08      299790.31      2681.4952     -490.02302      1210.2083      7023.2754      4310.8209      11334.096      156046.69      42.730849      42.730849      85.461698          16000 
    162000   3386.0388      302615.88      961.91835      300772.73      303046.13      304028.78      670.8191      -1542.9515      3860.4932      7002.4403      4458.8831      11461.323      156049.29      42.731086      42.731086      85.462173          16000 
    163000   3379.3423      305248.4       968.24497      306400.13      303998.11      305346.95     -2065.1071      460.47297      88.106632      6988.5916      4440.9779      11429.569      155847.33      42.712644      42.712644      85.425288          16000 
    164000   3411.9775      304263.45      974.57153      303228.65      304864.27      304697.44     -2424.7134     -990.2914       637.68411      7056.0822      4398.7366      11454.819      155911.06      42.718465      42.718465      85.436931          16000 
    165000   3389.4017      299478.21      980.8954       300006.13      297805.15      300623.34     -868.72073     -859.565       -1707.8444      7009.3947      4421.209       11430.604      156218.75      42.746548      42.746548      85.493097          16000 
    166000   3382.027       297569.45      987.21971      298633.84      297517.49      296557.03      662.88448     -1295.5025      1919.9938      6994.1437      4341.7761      11335.92       156232.59      42.747811      42.747811      85.495623          16000 
    167000   3407.0947      299034.53      993.5471       298729.58      297981.12      300392.9       635.88183     -1639.7424     -1226.1781      7045.9844      4431.6052      11477.59       156260.94      42.750397      42.750397      85.500793          16000 
    168000   3408.5543      298323.1       999.87247      298809.46      298115.89      298043.94      1926.9279     -2471.2137     -2259.8704      7049.003       4310.7048      11359.708      156191.61      42.744073      42.744073      85.488146          16000 
    169000   3413.0165      296403.77      1006.1968      295345.65      299406.2       294459.44     -1000.8464      3598.2657      306.9004       7058.2309      4400.8872      11459.118      156324.68      42.756208      42.756208      85.512416          16000 
    170000   3387.4708      301458.32      1012.5171      301885.13      299238.07      303251.75     -865.07873     -1413.3402      2834.1856      7005.4017      4382.2544      11387.656      155968.64      42.723724      42.723724      85.447447          16000 
    171000   3412.9701      301940.26      1018.8428      300930.88      302797.18      302092.74      1618.6961     -1531.7898      1293.239       7058.1349      4434.8992      11493.034      156015.66      42.728016      42.728016      85.456033          16000 
    172000   3373.1804      300859.91      1025.1656      301013.06      299687.3       301879.36      497.30028      1370.9637      2823.5242      6975.8487      4343.8885      11319.737      155996.33      42.726251      42.726251      85.452503          16000 
    173000   3413.824       299910.16      1031.4885      300580.09      300238.51      298911.89     -3448.4456     -340.24158     -3865.8563      7059.901       4401.8985      11461.799      156141.65      42.739515      42.739515      85.47903           16000 
    174000   3364.8395      300872.12      1037.8124      299872.52      301462.74      301281.11     -2587.4341      1436.4344      186.68308      6958.5993      4393.3598      11351.959      155997.79      42.726385      42.726385      85.45277           16000 
    175000   3390.5784      301023.21      1044.1342      301814.58      300466.27      300788.78      1165.3995     -58.978571      3212.4117      7011.8282      4430.0711      11441.899      156075.48      42.733476      42.733476      85.466953          16000 
    176000   3356.6764      299397.28      1050.4613      299050.43      297711.75      301429.66      394.5877      -2496.5689      1984.6402      6941.7178      4378.6236      11320.341      156194.8       42.744364      42.744364      85.488728          16000 
    177000   3379.2675      293996.91      1056.7879      294221.37      294577.14      293192.24     -1635.3112      517.40787      1020.5189      6988.4369      4365.3212      11353.758      156416.03      42.764535      42.764535      85.52907           16000 
    178000   3407.8543      296752.15      1063.1134      297647.01      297432.28      295177.15      1581.6111     -652.98157      1376.4516      7047.5553      4321.323       11368.878      156307.62      42.754653      42.754653      85.509305          16000 
    179000   3399.4385      301132.87      1069.4437      299607.15      302594.89      301196.57     -1907.2996      2656.0315      2761.7253      7030.1511      4406.7181      11436.869      156157.67      42.740977      42.740977      85.481954          16000 
    180000   3436.8323      298082.64      1075.7728      297898.99      298974.99      297373.95      1509.0017     -775.50395     -1622.8609      7107.4828      4318.8901      11426.373      156215.12      42.746217      42.746217      85.492435          16000 
    181000   3371.9597      300494.15      1082.1022      301557.08      299211.57      300713.79     -2785.0486     -1652.7577      2538.1336      6973.3241      4298.5918      11271.916      156073.8       42.733324      42.733324      85.466647          16000 
    182000   3384.8261      301522.38      1088.4295      302082.99      299715.04      302769.09      3176.082       2365.7539     -2939.4409      6999.9322      4414.1594      11414.092      156067.84      42.73278       42.73278       85.465559          16000 
    183000   3433.8206      301393.72      1094.7581      302252.35      301561.73      300367.09      1066.9494      266.65518      3115.986       7101.2546      4422.2857      11523.54       156100.45      42.735755      42.735755      85.47151           16000 
    184000   3372.324       297899.18      1101.0895      297634.35      296641.64      299421.56     -2948.1494      1483.83       -719.30759      6974.0775      4442.7489      11416.826      156281.15      42.752239      42.752239      85.504478          16000 
    185000   3340.8278      297781.23      1107.4186      296529.92      296854.19      299959.57      2077.336      -1325.998      -2432.0831      6908.9424      4388.3458      11297.288      156230.16      42.747589      42.747589      85.495178          16000 
    186000   3414.6564      296585.56      1113.7444      296762.85      297317.23      295676.6      -884.4667      -407.10074     -1306.5367      7061.6223      4343.207       11404.829      156282.81      42.752391      42.752391      85.504781          16000 
    187000   3425.6892      300308.12      1120.0701      299822.63      301268.7       299833.04     -1197.5276     -416.01045     -1347.746       7084.4384      4366.0453      11450.484      156094.37      42.735201      42.735201      85.470402          16000 
    188000   3448.0636      302915.39      1126.3977      301326.35      304022.15      303397.69      259.8769       1872.8385     -1525.5132      7130.7096      4380.4873      11511.197      156006.72      42.7272        42.7272        85.4544            16000 
    189000   3407.0565      302804.82      1132.7227      302830.83      300879.07      304704.57     -1451.5036      883.61994      670.50953      7045.9055      4397.3122      11443.218      155925.77      42.719809      42.719809      85.439618          16000 
    190000   3405.1441      302283.76      1139.0537      301988.89      304198.03      300664.36     -634.09643     -998.23687     -2273.4136      7041.9506      4377.5384      11419.489      155971.62      42.723996      42.723996      85.447992          16000 
    191000   3403.8901      299669.77      1145.3816      298432.12      300244.92      300332.26     -1538.5927     -503.18919      3270.7613      7039.3572      4489.1401      11528.497      156241.58      42.748631      42.748631      85.497262          16000 
    192000   3377.0678      297752.5       1151.7082      299097.82      297205.23      296954.45     -2931.9188      3185.9643     -1583.5983      6983.8878      4357.7714      11341.659      156211.79      42.745914      42.745914      85.491828          16000 
    193000   3391.3378      295536.13      1158.035       296005.55      295115.42      295487.43      2633.4107      3363.0698     -3155.368       7013.3987      4412.2262      11425.625      156451.18      42.767738      42.767738      85.535476          16000 
    194000   3362.916       294265.13      1164.3615      292975.16      295022.31      294797.91      1745.5949     -1229.0091      413.03449      6954.6214      4329.836       11284.457      156399.11      42.762993      42.762993      85.525986          16000 
    195000   3415.5188      297737.04      1170.6885      298058.65      298895.85      296256.63      1260.6686      106.84081      399.92797      7063.4058      4406.1819      11469.588      156306.76      42.754575      42.754575      85.509149          16000 
    196000   3412.3814      300716.97      1177.0149      299373.74      300760.73      302016.43      27.066168     -203.29655      1699.0141      7056.9175      4368.1782      11425.096      156010.23      42.727521      42.727521      85.455042          16000 
    197000   3407.4595      301992.15      1183.3375      301208.19      302173.93      302594.34     -1125.6852      991.54488     -2512.7569      7046.7389      4384.9457      11431.685      156005.45      42.727084      42.727084      85.454168          16000 
    198000   3447.9108      299591.61      1189.6603      298451.99      300305.86      300016.98     -97.857575     -744.80455      1807.4685      7130.3935      4307.5053      11437.899      156164.35      42.741586      42.741586      85.483172          16000 
    199000   3371.5122      298430.05      1195.9845      299942.14      296554.58      298793.44     -1154.1643      1480.2663      312.98857      6972.3987      4371.5878      11343.987      156225.66      42.747179      42.747179      85.494357          16000 
    200000   3362.5472      298271.54      1202.3184      296671.6       299047.86      299095.15     -955.51208     -287.78498      2317.2692      6953.8588      4323.3732      11277.232      156103.92      42.736072      42.736072      85.472144          16000 
    201000   3422.1781      303071.91      1208.6458      301970.88      302872.24      304372.63     -1811.3496      236.93879      1962.9493      7077.1775      4400.5101      11477.688      156042.57      42.730472      42.730472      85.460945          16000 
    202000   3381.2248      303035.38      1214.9742      301966.52      302609.82      304529.79      941.61343     -481.11871      83.599021      6992.4847      4481.1735      11473.658      155995.94      42.726216      42.726216      85.452432          16000 
    203000   3404.1933      305351.35      1221.3018      305396.31      305544.09      305113.65     -1406.6379      2876.2469      2383.0304      7039.9843      4389.1739      11429.158      155731.57      42.702066      42.702066      85.404132          16000 
    204000   3409.4728      300651.23      1227.6299      301775.16      300423.5       299755.04     -1176.4711      299.76579     -52.464085      7050.9026      4354.0017      11404.904      156044.6       42.730658      42.730658      85.461317          16000 
    205000   3398.419       295822.09      1233.9575      295158.45      296289.98      296017.85      1033.4935      466.21984      309.30574      7028.0428      4368.5428      11396.586      156335.92      42.757233      42.757233      85.514465          16000 
    206000   3359.1049      296959.08      1240.2849      296496.72      295647.7       298732.82      16.079772     -1018.3728      635.61018      6946.7399      4341.5801      11288.32       156187.11      42.743663      42.743663      85.487326          16000 
    207000   3377.794       297576.09      1246.6166      295766.79      298341.14      298620.35     -1397.6116      267.90965      2154.7645      6985.3896      4440.43        11425.82       156302.94      42.754226      42.754226      85.508452          16000 
    208000   3400.3667      300170.04      1252.9438      300670.54      300364.22      299475.38     -1461.9103     -2538.6807      2243.5869      7032.0708      4434.9231      11466.994      156205.47      42.745337      42.745337      85.490674          16000 
    209000   3378.1117      299827.63      1259.2731      298253.91      298961.27      302267.71      486.02875      192.65756      2196.0175      6986.0466      4380.2729      11366.319      156106.04      42.736266      42.736266      85.472532          16000 
    210000   3424.572       305861.59      1265.6047      306065.98      305744.44      305774.36     -1285.4951      575.4509       2256.0045      7082.1281      4365.0099      11447.138      155865.14      42.714271      42.714271      85.428542          16000 
    211000   3426.9105      303923.79      1271.9331      304607.83      303392.95      303770.6       189.16114     -2186.005       1963.5375      7086.9642      4421.7573      11508.722      155922.58      42.719518      42.719518      85.439036          16000 
    212000   3352.7921      302066.03      1278.2616      302202.36      300933.72      303062        -1873.938      -1424.5332     -1686.9156      6933.6849      4433.1125      11366.797      155972.65      42.724089      42.724089      85.448179          16000 
    213000   3408.6675      298562.5       1284.5891      298863.17      298682.05      298142.27     -860.72296     -475.55701      63.140263      7049.2371      4337.4531      11386.69       156165.96      42.741733      42.741733      85.483466          16000 
    214000   3385.8848      299900.51      1290.9167      300162.72      299484.35      300054.47      405.76431     -1919.102       296.55834      7002.1218      4317.946       11320.068      156153.1       42.740559      42.740559      85.481119          16000 
    215000   3432.5104      298076.36      1297.2426      297834.47      298696         297698.61     -1423.8755     -1663.1926     -2966.6071      7098.545       4334.5869      11433.132      156227.4       42.747337      42.747337      85.494675          16000 
    216000   3362.2777      299851.23      1303.5668      300510.68      299554.43      299488.59     -151.31564      1189.6842      620.55121      6953.3015      4340.905       11294.206      156064.55      42.732479      42.732479      85.464959          16000 
    217000   3411.5514      299287.63      1309.8925      299831.02      298940.87      299090.99      1535.7412     -29.759142     -2738.8101      7055.201       4418.0594      11473.26       156235.44      42.748071      42.748071      85.496142          16000 
    218000   3377.5615      297558.51      1316.219       298589.39      296268.51      297817.64      905.31789      1177.545      -1439.0494      6984.9088      4336.1429      11321.052      156269.37      42.751166      42.751166      85.502331          16000 
    219000   3392.1928      297067.12      1322.5376      297544.96      296411.55      297244.85      1179.5658      980.41657      2002.4159      7015.1669      4339.8303      11354.997      156314.21      42.755254      42.755254      85.510508          16000 
    220000   3383.2489      302412.71      1328.854       301267.33      303119.77      302851.02     -566.09317     -992.95786      782.64386      6996.6706      4411.3919      11408.063      156031.21      42.729436      42.729436      85.458872          16000 
    221000   3432.4914      301541.99      1335.1732      301742.53      301643.96      301239.5       1479.2487     -51.552912      2114.7903      7098.5057      4432.6987      11531.204      156048.37      42.731003      42.731003      85.462005          16000 
    222000   3384.8313      305182.58      1341.4875      304419.95      303536.95      307590.84     -1982.4305      698.13205      553.72463      6999.943       4453.9367      11453.88       155866.87      42.714429      42.714429      85.428858          16000 
    223000   3408.257       302454.5       1347.8109      302453.86      302582.74      302326.89     -3211.5153     -1049.6799     -2785.2547      7048.3881      4414.5332      11462.921      155985.26      42.725241      42.725241      85.450481          16000 
    224000   3404.7298      299370.7       1354.1376      299367.38      298879.16      299865.57      349.59934      662.00617     -359.46348      7041.0937      4390.235       11431.329      156190.32      42.743955      42.743955      85.48791           16000 
    225000   3393.6284      298622.9       1360.4634      298263.61      298992.41      298612.69     -24.457062      3120.371      -834.93964      7018.1357      4278.7387      11296.874      156170.79      42.742173      42.742173      85.484347          16000 
    226000   3379.1104      298631.66      1366.7905      299305.06      297123.68      299466.24      1320.2456      1853.615       1034.7002      6988.1121      4446.1672      11434.279      156246.52      42.749081      42.749081      85.498162          16000 
    227000   3409.3094      305118.37      1373.1204      306088.85      304767.57      304498.7       2311.5696     -1707.1492     -405.28634      7050.5645      4496.4948      11547.059      155916.73      42.718984      42.718984      85.437967          16000 
    228000   3425.7348      303241.9       1379.4515      303114.26      302999.75      303611.68     -484.8024      -488.04254      142.70006      7084.5328      4400.2873      11484.82       155890.22      42.716562      42.716562      85.433124          16000 
    229000   3419.6351      302893.78      1385.7815      301392.26      303724.85      303564.23      1173.5089     -980.87111     -1140.9041      7071.9185      4301.206       11373.125      155955.18      42.722494      42.722494      85.444988          16000 
    230000   3413.907       300696.99      1392.1074      299376.82      301490.63      301223.53      826.29647     -2126.1024     -2482.2264      7060.0726      4383.6092      11443.682      156112.21      42.736829      42.736829      85.473658          16000 
    231000   3422.9672      301348.56      1398.4362      301044.9       301573.2       301427.57      414.13698      1454.8827     -1060.9396      7078.8094      4347.4432      11426.253      156051.87      42.731322      42.731322      85.462643          16000 
    232000   3372.0366      297089.23      1404.7649      297139.23      295939.91      298188.55      352.72084     -1342.3534     -727.37124      6973.4833      4320.34        11293.823      156199.7       42.744811      42.744811      85.489621          16000 
    233000   3395.5554      294305.63      1411.0925      294375         294568         293973.89     -78.465137      411.75598      1356.097       7022.1208      4303.8207      11325.942      156496.01      42.771823      42.771823      85.543645          16000 
    234000   3353.6378      296347.54      1417.4214      297165.28      294013.25      297864.08     -1401.5242     -2081.3492      665.25527      6935.4339      4329.7698      11265.204      156273.5       42.751542      42.751542      85.503083          16000 
    235000   3398.6401      296973.28      1423.7486      297327.35      296877.25      296715.22     -1922.8512     -732.42242      797.14509      7028.5002      4397.4369      11425.937      156297.96      42.753772      42.753772      85.507544          16000 
    236000   3370.24        301925.74      1430.0763      300368.88      302222.4       303185.94     -2381.6979      3737.2445      2617.536       6969.7677      4371.736       11341.504      156031.04      42.729421      42.729421      85.458841          16000 
    237000   3386.3456      301193.75      1436.4064      303410.05      300374.18      299797.03      1664.3388     -3162.3451      1177.847       7003.0747      4439.5462      11442.621      156056.04      42.731703      42.731703      85.463405          16000 
    238000   3394.2952      306189.13      1442.7329      306267.3       305644.74      306655.36     -317.00248     -1594.6034     -149.14025      7019.5147      4537.765       11557.28       155760.1       42.704673      42.704673      85.409346          16000 
    239000   3391.0184      306529.15      1449.0572      308151.6       305446.43      305989.43     -1370.1555      667.71918     -1125.3205      7012.7382      4388.9718      11401.71       155727.37      42.701682      42.701682      85.403365          16000 
    240000   3419.8923      301322.62      1455.3719      302249.37      301730.76      299987.73     -689.43494     -1638.9737     -1562.0655      7072.4503      4384.0939      11456.544      155995.31      42.726158      42.726158      85.452317          16000 
    241000   3400.7368      299772.63      1461.6865      300653.87      298927.74      299736.27     -2332.1089      896.30085      1470.8221      7032.8361      4397.7125      11430.549      156081.49      42.734025      42.734025      85.46805           16000 
    242000   3406.4634      301661.44      1468.0017      300560.25      299693.14      304730.93     -8.2298085      1103.3246     -488.4337       7044.6789      4410.8274      11455.506      156074.16      42.733356      42.733356      85.466712          16000 
    243000   3379.6374      301567.98      1474.3144      303056.02      301701.27      299946.65      3061.1042     -1010.7638     -2056.4337      6989.2019      4390.1163      11379.318      155971.22      42.723959      42.723959      85.447919          16000 
    244000   3423.5822      298968.19      1480.6295      299827.03      297496.17      299581.38     -577.91405     -980.02246     -67.981218      7080.0811      4344.4637      11424.545      156173.85      42.742452      42.742452      85.484905          16000 
    245000   3358.5815      300552.59      1486.9432      300879.03      299070.61      301708.13     -594.3455       2838.3218     -2792.5658      6945.6576      4372.6145      11318.272      156130.94      42.738538      42.738538      85.477076          16000 
    246000   3380.9922      299106.5       1493.2602      298371.73      299620.13      299327.64     -420.55302     -1802.5464      172.43244      6992.0037      4437.6545      11429.658      156241.18      42.748594      42.748594      85.497188          16000 
    247000   3369.7422      300074.76      1499.5844      298459.38      300418.52      301346.37      2843.6563     -510.05519     -2299.1268      6968.7383      4303.9498      11272.688      156071.62      42.733124      42.733124      85.466248          16000 
    248000   3396.5845      297231.12      1505.9063      297450.49      296004.74      298238.13     -1511.5183     -1042.8711     -2495.8868      7024.249       4392.829       11417.078      156351.48      42.758652      42.758652      85.517304          16000 
    249000   3410.9925      299727.87      1512.2301      300114.78      299136.82      299932.03      1494.1977      1521.8824     -451.84345      7054.0453      4368.5973      11422.643      156153.73      42.740617      42.740617      85.481234          16000 
    250000   3394.199       304136.95      1518.5596      305626.84      303385.48      303398.53      860.50893      1892.8783     -2322.3996      7019.3157      4441.8354      11461.151      155989.19      42.7256        42.7256        85.4512            16000 
    251000   3418.5636      303841.12      1524.8873      303706.78      303448.52      304368.05      1936.1708      135.60086      622.11996      7069.7026      4410.6092      11480.312      155856.23      42.713457      42.713457      85.426914          16000 
    252000   3400.6752      301775.93      1531.2162      303220.89      301812.35      300294.55      444.7154       1352.3036      311.88801      7032.7087      4413.963       11446.672      156021.72      42.728569      42.728569      85.457139          16000 
    253000   3398.2073      297872.15      1537.5451      295703.13      300334.88      297578.46     -2812.015       2195.3404     -2816.4392      7027.605       4345.7517      11373.357      156272.22      42.751425      42.751425      85.50285           16000 
    254000   3390.6594      294759.15      1543.8701      294380.71      294893.24      295003.51     -255.65353     -894.92733     -2428.1683      7011.9958      4303.5112      11315.507      156360.14      42.759441      42.759441      85.518882          16000 
    255000   3412.9336      296062.29      1550.1931      295895.53      297213.72      295077.61     -2638.9944     -3137.3933     -442.6298       7058.0595      4386.0998      11444.159      156362.29      42.759637      42.759637      85.519273          16000 
    256000   3366.0749      298258.79      1556.5157      299781.13      297340.81      297654.45     -1337.6326      4134.4534     -3578.6247      6961.1543      4368.7937      11329.948      156104.27      42.736104      42.736104      85.472208          16000 
    257000   3407.2406      299343.38      1562.8444      301426.1       299281.8       297322.25      745.51662      106.93466     -14.40404       7046.2862      4440.778       11487.064      156080.72      42.733955      42.733955      85.46791           16000 
    258000   3399.5342      302530.64      1569.1729      300381.12      303311.11      303899.69     -1833.2762      4239.5564      1250.7315      7030.3491      4317.4286      11347.778      155902.42      42.717676      42.717676      85.435352          16000 
    259000   3413.1695      305096.82      1575.5013      304778.71      303660.38      306851.35      1034.8611      2293.2192      1900.5415      7058.5474      4410.9412      11469.489      155880.77      42.715699      42.715699      85.431398          16000 
    260000   3437.3689      302432.37      1581.8315      302602         301330.47      303364.65      1651.059      -3998.8925      2438.0525      7108.5926      4365.5827      11474.175      156088.8       42.734692      42.734692      85.469385          16000 
    261000   3356.6705      302256.67      1588.1598      301121.38      303243.52      302405.12     -2050.8899      145.24119      570.81518      6941.7056      4442.1061      11383.812      155963.05      42.723214      42.723214      85.446427          16000 
    262000   3412.3907      300486.84      1594.4814      300508.45      299527.9       301424.16      1310.9918      573.98564      521.89334      7056.9367      4318.9543      11375.891      156000.08      42.726595      42.726595      85.453189          16000 
    263000   3399.2722      297321.6       1600.7988      297275.93      296797.72      297891.15      1097.387       1375.709       3823.7967      7029.8073      4381.627       11411.434      156258.51      42.750175      42.750175      85.500349          16000 
    264000   3386.4746      296070.65      1607.1156      295640.37      297211.13      295360.44     -1630.3753      1281.3694      729.63133      7003.3415      4272.2736      11275.615      156313.85      42.755221      42.755221      85.510442          16000 
    265000   3408.1517      297273.02      1613.4317      295545.08      296730         299543.99     -1065.2401     -1549.7188     -1032.3488      7048.1705      4331.59        11379.76       156318.6       42.755654      42.755654      85.511307          16000 
    266000   3382.6137      301607.61      1619.7484      300311.41      301441.37      303070.06      789.93501      238.89701     -1833.0809      6995.357       4430.4464      11425.803      156032.84      42.729585      42.729585      85.45917           16000 
    267000   3385.515       303975.72      1626.0635      303831.57      304183.05      303912.54      874.12989     -703.19697      349.69295      7001.357       4331.7564      11333.113      155884.52      42.716042      42.716042      85.432084          16000 
    268000   3410.0253      298984.97      1632.3828      299624.65      298571.3       298758.96      19.987768     -1067.8831     -121.4733       7052.0451      4378.9534      11430.999      156133.12      42.738737      42.738737      85.477473          16000 
    269000   3362.7495      302849.65      1638.7028      304058.66      303121.02      301369.27     -989.92195     -1237.0072     -3841.2112      6954.2772      4409.4759      11363.753      155991.62      42.725822      42.725822      85.451644          16000 
    270000   3414.7033      300248.48      1645.0228      300980.28      300648.97      299116.2       2010.332      -938.99025      445.16885      7061.7193      4357.418       11419.137      156108.62      42.736501      42.736501      85.473002          16000 
    271000   3438.3807      302500.38      1651.3402      300935.23      301797.59      304768.32      1647.3941     -2680.0953     -1117.6755      7110.685       4380.1813      11490.866      156041.15      42.730344      42.730344      85.460687          16000 
    272000   3359.6259      302066.12      1657.6545      302917         303115.91      300165.44      113.35531     -1065.5376     -1222.6215      6947.8174      4284.2426      11232.06       155933.23      42.72049       42.72049       85.44098           16000 
    273000   3405.5732      298146.24      1663.9681      297881.96      298872.68      297684.08     -2712.6232      340.8466      -832.37493      7042.8379      4416.3276      11459.166      156260.66      42.75037       42.75037       85.500741          16000 
    274000   3356.6456      296608.43      1670.2824      297004.27      295375.74      297445.26      2656.8771     -3127.1159      2837.2888      6941.6541      4338.8719      11280.526      156200.97      42.744927      42.744927      85.489854          16000 
    275000   3415.1832      297489.46      1676.5952      297335.52      297489.91      297642.94      1602.3855     -2722.5441     -185.13614      7062.7118      4395.7413      11458.453      156258.86      42.750207      42.750207      85.500413          16000 
    276000   3399.8299      297748.56      1682.9083      297068.19      298295.77      297881.73      3062.2713     -1094.0022      498.90279      7030.9607      4372.1266      11403.087      156294.22      42.753431      42.753431      85.506862          16000 
    277000   3410.928       299433.56      1689.2223      297750         299700.09      300850.58      238.62809     -619.53878      10.171473      7053.9119      4356.3214      11410.233      156267.26      42.750973      42.750973      85.501946          16000 
    278000   3391.0358      300741.88      1695.5367      301242.59      299946.28      301036.76      2280.0526     -2368.6007      949.43106      7012.774       4301.7615      11314.536      155998.71      42.726469      42.726469      85.452938          16000 
    279000   3405.8334      300149.13      1701.8534      300819.11      299493.3       300134.98      529.34897     -322.81001      1305.7232      7043.3761      4404.2933      11447.669      156118.34      42.737388      42.737388      85.474776          16000 
    280000   3402.5397      305450.86      1708.1712      306023.61      305770.92      304558.05     -636.92982     -425.356        4557.3059      7036.5645      4450.7141      11487.279      155892.59      42.716778      42.716778      85.433557          16000 
    281000   3409.34        302672.89      1714.4924      302443.97      302237.51      303337.19      936.48756      2176.701       386.71335      7050.6278      4395.0982      11445.726      155945.96      42.721652      42.721652      85.443304          16000 
    282000   3402.9237      298099.16      1720.8238      296296.8       299745.03      298255.66     -788.36813      548.12517      1349.1927      7037.3588      4389.5616      11426.92       156202.61      42.745076      42.745076      85.490152          16000 
    283000   3420.0511      298469.69      1727.1413      298281.2       297650.08      299477.78      263.90364     -102.03655      2622.6044      7072.7787      4262.7128      11335.491      156102.59      42.735951      42.735951      85.471902          16000 
    284000   3423.4922      299348.44      1733.4584      300212.34      298748.5       299084.47      275.30844     -2735.5923     -2247.7789      7079.8951      4355.2724      11435.167      156145.54      42.739869      42.739869      85.479739          16000 
    285000   3369.3777      303102.9       1739.775       303574.51      304167.72      301566.48      468.73069      2376.9184     -952.38671      6967.9846      4410.2086      11378.193      155938.76      42.720995      42.720995      85.44199           16000 
[...]
   3930000   3630.3812      301689.4       6596.138       303012.32      301576.75      300479.12      1111.9988     -1907.5683      2441.8814      7507.7482      8639.2964      16147.045      157342.95      42.757378      42.757378      86.06472           16000 
   3931000   3624.8807      299220.31      6603.2336      300836.27      298434.42      298390.24     -830.73438      2584.3156      2579.3936      7496.3732      8612.4432      16108.816      157546.04      42.775767      42.775767      86.101734          16000 
   3932000   3656.7226      298718.82      6610.3243      297018.07      298434.03      300704.35      1245.6487      1410.866      -4250.4472      7562.2232      8532.6859      16094.909      157615.22      42.782026      42.782026      86.114334          16000 
   3933000   3669.3271      300709.14      6617.4175      300307.47      301906.05      299913.91      1996.9995     -137.96903      546.93626      7588.2898      8506.6199      16094.91       157611.61      42.7817        42.7817        86.113677          16000 
   3934000   3653.7984      300510.59      6624.5128      300299.58      301467.44      299764.74     -1184.1591     -1109.3773      1682.0046      7556.1758      8555.9281      16112.104      157518.79      42.7733        42.7733        86.096769          16000 
   3935000   3632.3752      298815.15      6631.6068      297743.67      300798.61      297903.16     -607.42606     -2038.2969     -1007.5909      7511.872       8599.3332      16111.205      157520.04      42.773413      42.773413      86.096997          16000 
   3936000   3654.6391      301014.42      6638.6999      299250.16      303564         300229.08      477.93112     -844.16443     -105.10889      7557.9144      8544.2573      16102.172      157565.38      42.777517      42.777517      86.105257          16000 
   3937000   3620.9322      301495.7       6645.7934      301145.34      303004.28      300337.48     -196.23915      216.47058     -6080.3118      7488.2075      8620.0203      16108.228      157536.09      42.774866      42.774866      86.09992           16000 
   3938000   3630.9847      302029.98      6652.8845      301920.61      302858.55      301310.76     -540.24027     -2201.2329      358.67536      7508.9964      8597.7973      16106.794      157540.12      42.775231      42.775231      86.100656          16000 
   3939000   3617.5047      303607.54      6659.9807      305591.04      303525.34      301706.25      2769.6141     -1060.098       1756.8278      7481.1192      8668.6111      16149.73       157304.8       42.753922      42.753922      86.057764          16000 
   3940000   3627.0969      303567.38      6667.0752      302035.94      307015.52      301650.68     -2214.0069      3218.5676      2002.9028      7500.9562      8650.9698      16151.926      157290.22      42.752601      42.752601      86.055105          16000 
   3941000   3645.5358      299877.33      6674.1746      300989.96      299463.3       299178.74     -1050.0883      3865.518       1664.3674      7539.0885      8567.9396      16107.028      157526.26      42.773977      42.773977      86.098131          16000 
   3942000   3612.5934      299545.13      6681.2668      299790.66      301550.43      297294.32      145.2599      -4342.5858     -2754.6497      7470.9627      8644.3526      16115.315      157481.74      42.769946      42.769946      86.090019          16000 
   3943000   3648.2419      302893.75      6688.3594      302919.66      302718.43      303043.15     -1574.6113     -1074.7121     -4134.1777      7544.6849      8578.2315      16122.916      157439.51      42.766122      42.766122      86.082321          16000 
   3944000   3629.9827      301058.77      6695.4516      303830.22      300829.56      298516.53      1910.2234      3260.8181     -2116.1612      7506.9242      8621.8842      16128.808      157407.52      42.763226      42.763226      86.076492          16000 
   3945000   3638.6194      301211.15      6702.5427      300674.55      302934.73      300024.17      1002.3283      1386.3288      274.43435      7524.7851      8624.9407      16149.726      157295.33      42.753064      42.753064      86.056037          16000 
   3946000   3671.2863      303666.58      6709.639       301376.87      305088.21      304534.65      1014.1541      3936.6227     -4205.3857      7592.3413      8548.3998      16140.741      157339.71      42.757085      42.757085      86.064129          16000 
   3947000   3655.3235      301762.06      6716.7379      303153.06      302219.53      299913.59      790.1951      -2470.1222     -4585.9136      7559.3298      8550.095       16109.425      157507.46      42.772274      42.772274      86.094705          16000 
   3948000   3625.0538      299290.04      6723.8333      301080.37      299934.04      296855.72     -1173.2863     -1307.4471      5585.31        7496.7311      8603.6372      16100.368      157555.87      42.776656      42.776656      86.103523          16000 
   3949000   3682.6778      299571.05      6730.9249      298155.06      298403.88      302154.2      -1084.0214      2751.6158      1347.0833      7615.8995      8477.4447      16093.344      157591.83      42.77991       42.77991       86.110075          16000 
   3950000   3607.3543      296010.92      6738.0204      299564.62      293046.54      295421.62      1507.7508      1503.6609      2535.234       7460.128       8612.8204      16072.948      157701.07      42.789793      42.789793      86.129967          16000 
   3951000   3656.5064      299533.48      6745.1115      298988.38      300155.27      299456.79      1103.5413     -3177.2038     -309.69182      7561.776       8506.2401      16068.016      157726.15      42.792061      42.792061      86.134531          16000 
   3952000   3621.9883      300944.6       6752.21        302395.71      299924.05      300514.04     -1369.8838      2541.1838     -3530.953       7490.3915      8614.409       16104.801      157530.26      42.774338      42.774338      86.098858          16000 
   3953000   3647.2341      300045.43      6759.3009      301236.83      295200.82      303698.63      126.57079     -437.82749      2866.9354      7542.6006      8538.1429      16080.744      157649.75      42.785151      42.785151      86.120623          16000 
   3954000   3635.4745      297209.81      6766.3942      296224.5       298897.9       296507.04      52.459237     -1737.3978     -2902.9557      7518.2814      8584.4079      16102.689      157532.12      42.774506      42.774506      86.099197          16000 
   3955000   3656.9034      302000.09      6773.4843      301499.4       301052.38      303448.49      247.97564     -1557.5745     -208.14809      7562.5972      8529.0746      16091.672      157590.53      42.779793      42.779793      86.109838          16000 
   3956000   3619.7511      300956.04      6780.5799      300872.6       302443.69      299551.84      2497.0311      4144.9346      2128.7458      7485.7649      8614.6268      16100.392      157542.33      42.77543       42.77543       86.101057          16000 
   3957000   3609.82        299719.78      6787.6717      299727.68      301082.48      298349.17     -2463.16        2166.9898     -4926.0272      7465.227       8623.9413      16089.168      157603.88      42.781         42.781         86.112268          16000 
   3958000   3614.2936      296088.89      6794.7653      294868.49      296874.82      296523.35     -2140.7364      144.2318      -4486.8885      7474.4787      8584.6162      16059.095      157762.79      42.795374      42.795374      86.141201          16000 
   3959000   3658.9081      298712.57      6801.8596      297702.88      298356.66      300078.18      118.66728      2603.745      -1125.1901      7566.7429      8521.0211      16087.764      157600.2       42.780667      42.780667      86.111599          16000 
   3960000   3660.6198      299394.56      6808.955       296565.81      300262.53      301355.35     -163.23326     -1518.8714      8647.843       7570.2828      8498.1304      16068.413      157700.78      42.789767      42.789767      86.129914          16000 
   3961000   3648.7656      296700.94      6816.05        299519.2       294871.42      295712.2       1960.8228      243.67302      1229.4542      7545.7678      8510.9019      16056.67       157762.93      42.795387      42.795387      86.141226          16000 
   3962000   3641.7532      297410.42      6823.1409      300591.03      295288.54      296351.69     -711.88457      3711.4337     -7857.037       7531.266       8511.5988      16042.865      157834.01      42.801813      42.801813      86.154161          16000 
   3963000   3646.9086      294703.76      6830.232       294815.64      294686.86      294608.76     -461.27756      1511.8306     -2246.3717      7541.9275      8484.1212      16026.049      157922.34      42.809796      42.809796      86.17023           16000 
   3964000   3630.8301      296733.18      6837.3225      295942         295626.44      298631.1       196.93454     -287.38366      4774.9935      7508.6766      8541.8483      16050.525      157780.87      42.797009      42.797009      86.144492          16000 
   3965000   3627.1647      298889.63      6844.414       298814.39      299819.99      298034.5       1419.1918     -2748.7992     -3983.2849      7501.0965      8575.1005      16076.197      157641.9       42.78444       42.78444       86.119192          16000 
   3966000   3699.1462      299094.23      6851.5051      299126.42      300296.44      297859.84      3021.4021     -388.46539     -4567.8247      7649.9566      8438.2573      16088.214      157572.44      42.778156      42.778156      86.106543          16000 
   3967000   3640.0815      302271.59      6858.598       300531.16      301687.15      304596.48      1408.2847      2048.1431      4429.3498      7527.8089      8574.0951      16101.904      157495.63      42.771204      42.771204      86.092549          16000 
   3968000   3660.5951      301277.02      6865.6956      303210.54      299863.36      300757.16      1275.0536      3653.9262      3754.8572      7570.2316      8528.1438      16098.375      157513.6       42.77283       42.77283       86.095822          16000 
   3969000   3659.2954      302743.14      6872.7915      304971.1       301778.12      301480.19      1146.4094     -3904.9521     -6560.2401      7567.5438      8529.6668      16097.211      157518.73      42.773294      42.773294      86.096758          16000 
   3970000   3661.825       302257.84      6879.8866      303040.36      302979.14      300754.02     -1555.7834     -335.69992     -5802.6249      7572.7752      8524.9392      16097.714      157511.77      42.772665      42.772665      86.09549           16000 
   3971000   3671.4055      308175.46      6886.9764      307905.03      309169.36      307451.99      2299.5425     -2513.1088      3059.8738      7592.588       8570.7156      16163.304      157161.7       42.740954      42.740954      86.031661          16000 
   3972000   3680.728       303487.53      6894.0669      303593.26      305376.34      301492.98      2773.3985      1869.2124     -432.78548      7611.8672      8519.7672      16131.634      157324.28      42.755687      42.755687      86.061316          16000 
   3973000   3649.6385      302977.08      6901.1513      302982.18      302981.47      302967.58     -84.469207      2223.426      -3353.5118      7547.5731      8571.4035      16118.977      157387.55      42.761417      42.761417      86.07285           16000 
   3974000   3636.7589      303204.83      6908.2369      303232.91      302909.41      303472.17      782.57755     -1780.4719     -1549.1973      7520.9377      8610.787       16131.725      157318.76      42.755187      42.755187      86.06031           16000 
   3975000   3635.1888      306031.91      6915.3217      307410.95      302455.15      308229.64      1084.1154     -2523.6007      337.88773      7517.6906      8624.8495      16142.54       157259.29      42.749799      42.749799      86.049464          16000 
   3976000   3636.2248      301525.18      6922.4054      299890.81      301798.77      302885.95      3106.2788     -1081.17       -350.4888       7519.8332      8602.7735      16122.607      157362.65      42.759162      42.759162      86.068311          16000 
   3977000   3582.3491      303394.52      6929.493       304485.14      301619.27      304079.14     -769.8567       1296.3515     -3534.2628      7408.4163      8695.0297      16103.446      157458.16      42.767811      42.767811      86.08572           16000 
   3978000   3644.3511      304177.62      6936.587       302481.56      304347.83      305703.47      2770.3927      677.53715      279.69185      7536.6386      8596.584       16133.223      157293.3       42.75288       42.75288       86.055666          16000 
   3979000   3645.4635      299258.49      6943.6813      300135.89      301318.35      296321.24      69.719968      1533.5087      3473.1798      7538.9391      8559.8849      16098.824      157475.67      42.769396      42.769396      86.088911          16000 
   3980000   3660.1773      300620.97      6950.7732      301802.69      300639.08      299421.15     -4463.1458      506.989       -963.39222      7569.3677      8513.3305      16082.698      157559.27      42.776964      42.776964      86.104144          16000 
   3981000   3638.4566      301007.93      6957.8653      302228.78      298945.03      301849.97     -2350.2486     -1888.1719     -4.5671923      7524.4486      8560.7948      16085.243      157544.46      42.775624      42.775624      86.101446          16000 
   3982000   3606.6182      300129.39      6964.9532      298560.61      298736.97      303090.58     -2111.257      -2515.1811      2825.6627      7458.6057      8621.0764      16079.682      157573.59      42.77826       42.77826       86.106753          16000 
   3983000   3625.9135      304439.18      6972.0385      307962.22      302126.35      303228.98      356.15723      2518.3541     -4905.5243      7498.5091      8628.9867      16127.496      157316.66      42.754996      42.754996      86.059925          16000 
   3984000   3584.7079      305157.79      6979.1275      305190.63      306560.51      303722.24      808.18239     -1347.3894     -4388.1206      7413.2945      8707.5806      16120.875      157353.47      42.758331      42.758331      86.066638          16000 
   3985000   3633.048       302082.28      6986.2105      303186         302306.26      300754.58      704.49956     -2125.615      -3081.6154      7513.2633      8596.5901      16109.853      157409.97      42.763448      42.763448      86.076938          16000 
   3986000   3626.6662      299182.11      6993.3023      298332.18      299262.28      299951.87      882.2312       1113.2081      7102.3336      7500.0656      8580.5031      16080.569      157564.05      42.777396      42.777396      86.105014          16000 
   3987000   3641.2246      298619.54      7000.3918      298997.49      299057.53      297803.61     -1688.1527      2850.5723      626.39533      7530.1729      8537.153       16067.326      157632.69      42.783607      42.783607      86.117515          16000 
   3988000   3624.8998      298386.88      7007.4788      299100.22      297542.44      298518        -895.04254     -2052.131      -6056.5988      7496.4126      8571.1245      16067.537      157630.62      42.78342       42.78342       86.117139          16000 
   3989000   3636.9727      299772.04      7014.5732      300414.08      298225.55      300676.51      2101.1537     -6090.872       2352.4931      7521.3798      8571.155       16092.535      157496.9       42.771319      42.771319      86.09278           16000 
   3990000   3625.2629      297671.21      7021.655       295241.06      299500.73      298271.82     -1185.66       -1487.8289      5318.7973      7497.1636      8557.718       16054.882      157696.14      42.789346      42.789346      86.129068          16000 
   3991000   3614.9687      297925.53      7028.7397      299030.98      298140.7       296604.91     -3049.2374      2270.7856     -541.79058      7475.8748      8594.9749      16070.85       157609.49      42.781508      42.781508      86.113291          16000 
   3992000   3637.6544      299415.48      7035.8284      298646.08      298424.76      301175.59      605.13649     -1958.6747     -884.799        7522.7896      8542.8079      16065.598      157634.58      42.783778      42.783778      86.117861          16000 
   3993000   3663.2086      302131.72      7042.9168      303027.64      302392         300975.54     -1136.4703     -4408.4298      1806.6472      7575.6365      8523.517       16099.153      157448.9       42.766973      42.766973      86.084033          16000 
   3994000   3624.1781      300967.43      7050.0008      299495.85      301537.28      301869.16      50.714647     -2251.8098      2164.679       7494.9202      8584.2293      16079.15       157546.53      42.775811      42.775811      86.101823          16000 
   3995000   3656.2318      300521.41      7057.094       300534.88      301050.63      299978.72     -2217.6772      2883.931      -5769.0102      7561.2083      8558.5506      16119.759      157327.89      42.756013      42.756013      86.061973          16000 
   3996000   3615.2687      298503.49      7064.1808      297039.71      299301.02      299169.73     -276.11488      986.45556     -5166.5608      7476.4952      8571.8804      16048.376      157708.75      42.790487      42.790487      86.131364          16000 
   3997000   3576.6381      295336.1       7071.2611      294152.43      295843.23      296012.64      753.56455      1978.1477      2251.5454      7396.6057      8614.7049      16011.311      157910.03      42.808683      42.808683      86.167991          16000 
   3998000   3583.6887      298408.9       7078.3415      296768.88      299367.91      299089.91     -862.88206      892.58512      2850.6866      7411.1867      8639.1088      16050.295      157700.46      42.789737      42.789737      86.129855          16000 
   3999000   3621.659       298733.35      7085.4225      298416.35      298332.79      299450.91      904.66672      779.03035     -3762.1379      7489.7105      8586.0217      16075.732      157560.97      42.777117      42.777117      86.104452          16000 
   4000000   3608.843       296900.09      7092.5078      295677.04      297691.65      297331.58     -2083.8365     -1035.3742     -3375.3333      7463.2066      8614.7826      16077.989      157544.93      42.775665      42.775665      86.10153           16000 
Loop time of 7092.51 on 8 procs for 1000000 steps with 16000 atoms

Performance: 6.091 ns/day, 3.940 hours/ns, 140.994 timesteps/s
58.4% CPU use with 1 MPI tasks x 8 OpenMP threads

MPI task timing breakdown:
Section |  min time  |  avg time  |  max time  |%varavg| %total
---------------------------------------------------------------
Pair    | 6816.9     | 6816.9     | 6816.9     |   0.0 | 96.11
Neigh   | 10.433     | 10.433     | 10.433     |   0.0 |  0.15
Comm    | 38.352     | 38.352     | 38.352     |   0.0 |  0.54
Output  | 1.4335     | 1.4335     | 1.4335     |   0.0 |  0.02
Modify  | 200.26     | 200.26     | 200.26     |   0.0 |  2.82
Other   |            | 25.14      |            |       |  0.35

Nlocal:          16000 ave       16000 max       16000 min
Histogram: 1 0 0 0 0 0 0 0 0 0
Nghost:          13590 ave       13590 max       13590 min
Histogram: 1 0 0 0 0 0 0 0 0 0
Neighs:              0 ave           0 max           0 min
Histogram: 1 0 0 0 0 0 0 0 0 0
FullNghs:   1.4653e+06 ave  1.4653e+06 max  1.4653e+06 min
Histogram: 1 0 0 0 0 0 0 0 0 0

Total # of neighbors = 1465302
Ave neighs/atom = 91.581375
Neighbor list builds = 31436
Dangerous builds = 0
Total wall time: 7:13:42
