
atom_style atomic
units metal
boundary p p p
#atom_modify sort 0 0.0
newton on

read_data data.lammps
Reading data file ...
  triclinic box = (0 0 0) to (4.3790145 4.3790145 4.3790145) with tilt (-0 0 0)
  1 by 1 by 1 MPI processor grid
  reading atoms ...
  8 atoms
  read_data CPU = 0.002 seconds
replicate 10 10 20
Replicating atoms ...
  triclinic box = (0 0 0) to (43.790145 43.790145 87.58029) with tilt (-0 0 0)
  1 by 1 by 1 MPI processor grid
  16000 atoms
  replicate CPU = 0.008 seconds

### interactions

pair_style flare
pair_coeff * * lmp.flare
Reading potential file lmp.flare with DATE: Thu

# compute unc all flare/std/atom L_inv_lmp.flare sparse_desc_lmp.flare
# compute MaxUnc all reduce max c_unc

mass 1 12.011000
mass 2 28.085000

thermo_style custom step temp press cpu pxx pyy pzz pxy pxz pyz ke pe etotal vol lx ly lz atoms    #c_MaxUnc
thermo 1000
timestep 0.0005
restart 100000 restart_*.dat

#################### Equilibrate at P and T_es ##############################
velocity all create $T 41928459 rot yes dist gaussian
velocity all create 3800 41928459 rot yes dist gaussian
fix mom all momentum 1000 linear 1 1 1 angular

fix 1 all npt temp $T $T $(100.0*dt) iso $P $P $(1000.0*dt)
fix 1 all npt temp 3800 $T $(100.0*dt) iso $P $P $(1000.0*dt)
fix 1 all npt temp 3800 3800 $(100.0*dt) iso $P $P $(1000.0*dt)
fix 1 all npt temp 3800 3800 0.050000000000000002776 iso $P $P $(1000.0*dt)
fix 1 all npt temp 3800 3800 0.050000000000000002776 iso 600000 $P $(1000.0*dt)
fix 1 all npt temp 3800 3800 0.050000000000000002776 iso 600000 600000 $(1000.0*dt)
fix 1 all npt temp 3800 3800 0.050000000000000002776 iso 600000 600000 0.5
dump 1 all custom 1000 1equil.bin id type x y z vx vy vz
run   10000 # report performance
Neighbor list info ...
  update every 1 steps, delay 10 steps, check yes
  max neighbors/atom: 2000, page size: 100000
  master list distance cutoff = 6
  ghost atom cutoff = 6
  binsize = 6, bins = 8 8 15
  1 neighbor lists, perpetual/occasional/extra = 1 0 0
  (1) pair flare/kk, perpetual
      attributes: full, newton on, kokkos_device
      pair build: full/bin/kk/device
      stencil: full/bin/3d
      bin: kk/device
Per MPI rank memory allocation (min/avg/max) = 15.9 | 15.9 | 15.9 Mbytes
   Step          Temp          Press           CPU            Pxx            Pyy            Pzz            Pxy            Pxz            Pyz           KinEng         PotEng         TotEng         Volume           Lx             Ly             Lz          Atoms   
         0   3800           68690.109      0              68311.667      68862.63       68896.03      -527.30309      237.49657     -596.18676      7858.5256     -4109.4047      3749.1209      167941.93      43.790145      43.790145      87.58029           16000 
      1000   3862.4524      602203.34      6.5771542      603320.15      601033.66      602256.22     -1201.9233      481.0387       326.02557      7987.6792      8163.1114      16150.791      142835.76      41.489256      41.489256      82.978512          16000 
      2000   3822.3693      601039.99      13.150328      603191.54      600374.45      599553.98      3556.4924      46.971562     -237.34261      7904.786       7859.0088      15763.795      142686.34      41.474784      41.474784      82.949568          16000 
      3000   3781.8893      599078.2       19.729146      598023.77      601505.28      597705.55     -1744.2406     -4310.8538     -579.59657      7821.0721      8036.2214      15857.294      142657.25      41.471965      41.471965      82.943931          16000 
      4000   3785.892       597617.15      26.307203      598936.82      596634.5       597280.13      1570.8109     -3031.9019     -546.53921      7829.3498      8075.8983      15905.248      142664.64      41.472682      41.472682      82.945364          16000 
      5000   3789.9115      599805.68      32.88429       598066.09      600456.9       600894.04     -3289.1998     -2992.2345     -777.6198       7837.6622      8016.7394      15854.402      142632.7       41.469586      41.469586      82.939172          16000 
      6000   3800.6559      598023         39.466655      598706.34      597257.2       598105.46      56.6075       -2181.343      -1812.5753      7859.882       8061.8401      15921.722      142724.55      41.478486      41.478486      82.956972          16000 
      7000   3809.8444      600691.37      46.04763       601482.06      597998.4       602593.66     -328.24699     -556.94068      1708.8514      7878.8841      7989.0193      15867.903      142529         41.459533      41.459533      82.919067          16000 
      8000   3821.8328      598285.74      52.630962      596537.92      600691.05      597628.26      4094.1461     -775.13389     -207.43969      7903.6766      7976.9707      15880.647      142662.16      41.472441      41.472441      82.944882          16000 
      9000   3786.8028      597200.87      59.213343      595946.19      597773.22      597883.19     -20.403777      2729.9326      1719.9377      7831.2334      8041.4041      15872.638      142684.16      41.474573      41.474573      82.949146          16000 
     10000   3808.6105      603964         65.796487      605590.69      602843.26      603458.05      3549.8018      2327.1563     -1803.756       7876.3325      8098.3788      15974.711      142407.48      41.447748      41.447748      82.895495          16000 
Loop time of 65.7965 on 8 procs for 10000 steps with 16000 atoms

Performance: 6.566 ns/day, 3.655 hours/ns, 151.984 timesteps/s
60.0% CPU use with 1 MPI tasks x 8 OpenMP threads

MPI task timing breakdown:
Section |  min time  |  avg time  |  max time  |%varavg| %total
---------------------------------------------------------------
Pair    | 62.795     | 62.795     | 62.795     |   0.0 | 95.44
Neigh   | 0.11194    | 0.11194    | 0.11194    |   0.0 |  0.17
Comm    | 0.34641    | 0.34641    | 0.34641    |   0.0 |  0.53
Output  | 0.010831   | 0.010831   | 0.010831   |   0.0 |  0.02
Modify  | 2.2794     | 2.2794     | 2.2794     |   0.0 |  3.46
Other   |            | 0.2526     |            |       |  0.38

Nlocal:          16000 ave       16000 max       16000 min
Histogram: 1 0 0 0 0 0 0 0 0 0
Nghost:          13891 ave       13891 max       13891 min
Histogram: 1 0 0 0 0 0 0 0 0 0
Neighs:              0 ave           0 max           0 min
Histogram: 1 0 0 0 0 0 0 0 0 0
FullNghs:  1.62138e+06 ave 1.62138e+06 max 1.62138e+06 min
Histogram: 1 0 0 0 0 0 0 0 0 0

Total # of neighbors = 1621380
Ave neighs/atom = 101.33625
Neighbor list builds = 288
Dangerous builds = 0
run  990000
Per MPI rank memory allocation (min/avg/max) = 16.2 | 16.2 | 16.2 Mbytes
   Step          Temp          Press           CPU            Pxx            Pyy            Pzz            Pxy            Pxz            Pyz           KinEng         PotEng         TotEng         Volume           Lx             Ly             Lz          Atoms   
     10000   3808.6105      603964         0              605590.69      602843.26      603458.05      3549.8018      2327.1563     -1803.756       7876.3325      8098.3788      15974.711      142407.48      41.447748      41.447748      82.895495          16000 
     11000   3791.8526      606668.09      6.5822004      608879.21      604120.47      607004.6      -1702.2273      396.28452      944.3167       7841.6765      8184.2859      16025.962      142367.33      41.443852      41.443852      82.887705          16000 
     12000   3804.2633      595405.9       13.163754      594313.78      594720.75      597183.17     -1295.1361     -205.95952      2724.0601      7867.3423      7948.2261      15815.568      142742.18      41.480193      41.480193      82.960387          16000 
     13000   3798.6018      599367.35      19.745764      601094.14      597568.82      599439.11     -2584.373       1618.8184      2284.4812      7855.634       8035.5575      15891.192      142636.57      41.469962      41.469962      82.939923          16000 
     14000   3781.8401      599559         26.329356      601392.6       599710.86      597573.54      5246.4091     -1048.5725     -766.0757       7820.9704      8143.8111      15964.782      142587.42      41.465198      41.465198      82.930395          16000 
     15000   3789.0795      601350.79      32.912653      602708.23      602560.05      598784.08     -2577.3698      2487.176      -1435.882       7835.9418      7961.2574      15797.199      142486.96      41.455457      41.455457      82.910914          16000 
     16000   3796.4235      598201.32      39.496832      596938.43      598264.57      599400.95     -4070.4213     -3501.5177      650.09397      7851.1292      8059.8507      15910.98       142681.27      41.474293      41.474293      82.948586          16000 
     17000   3761.148       600372.71      46.082218      599492.85      602549.93      599075.34     -1055.3835      2127.7581     -562.02053      7778.1784      8081.3435      15859.522      142568.41      41.463355      41.463355      82.926709          16000 
     18000   3809.7653      613346.07      52.663713      612841.2       616318.83      610878.2       322.38195     -3149.2004      431.1973       7878.7206      8272.3743      16151.095      142136.43      41.421434      41.421434      82.842869          16000 
     19000   3795.4119      600958.49      59.245666      599958.62      602865.82      600051.02     -237.07972      2389.1924      1244.8131      7849.0373      8104.3282      15953.366      142624.98      41.468838      41.468838      82.937676          16000 
     20000   3817.7675      599215.83      65.826574      599061.79      599558.25      599027.44     -4923.7713      3910.3585      1877.7762      7895.2694      7938.4893      15833.759      142612.01      41.467581      41.467581      82.935162          16000 
     21000   3793.7958      599113.17      72.406623      599594.48      598813.24      598931.8      -372.84928     -260.57409     -680.24905      7845.6952      8065.1521      15910.847      142543.28      41.460918      41.460918      82.921836          16000 
     22000   3799.6663      602388.71      78.9888        601356.75      603279.3       602530.08      3204.4046     -684.93017     -1366.6778      7857.8356      8043.603       15901.439      142521         41.458758      41.458758      82.917517          16000 
     23000   3745.4981      600715.5       85.569778      601934.06      599937.64      600274.79     -6887.5363      1114.3782      1973.2415      7745.8138      8091.9612      15837.775      142542.13      41.460807      41.460807      82.921614          16000 
     24000   3818.8873      604689.1       92.151264      604555.44      604884.62      604627.24     -3910.3091      201.50674      1349.9851      7897.5852      8164.8533      16062.439      142373.88      41.444487      41.444487      82.888975          16000 
     25000   3803.7063      601080.77      98.735763      600982.72      599795.44      602464.14     -4162.9257     -2422.2723     -1166.4627      7866.1903      8031.3894      15897.58       142541.08      41.460705      41.460705      82.921409          16000 
     26000   3747.9658      595713.45      105.31775      595613.34      595614.74      595912.26      1915.9967     -2527.6779     -564.90826      7750.9173      8077.5307      15828.448      142734.67      41.479466      41.479466      82.958933          16000 
     27000   3792.7767      601781.26      111.89986      602204.47      601323.51      601815.8      -951.1892       145.82071      4738.305       7843.5877      8037.8399      15881.428      142495.12      41.456248      41.456248      82.912496          16000 
     28000   3792.4169      602311.84      118.48265      602464.26      602380.18      602091.08     -711.04479     -3443.4009      2285.8254      7842.8436      8149.4006      15992.244      142535.22      41.460137      41.460137      82.920273          16000 
     29000   3785.7089      598234.75      125.06327      600270.69      596330.45      598103.11      972.92341     -100.24585     -1676.2117      7828.9711      8021.3823      15850.353      142632.8       41.469596      41.469596      82.939191          16000 
     30000   3849.2351      600716.83      131.64489      601896.67      598764.82      601488.99      2451.8453     -1081.9128     -1078.5678      7960.3454      8105.9649      16066.31       142607.87      41.467179      41.467179      82.934359          16000 
     31000   3782.9997      608000.1       138.22641      608397.42      607042.52      608560.36      1454.4323     -2653.5353     -3326.8992      7823.3685      8183.1526      16006.521      142315.29      41.438802      41.438802      82.877604          16000 
     32000   3810.8744      597443.48      144.80783      596694.06      597872.33      597764.06      1160.0138      4608.7384     -395.34086      7881.0143      7960.6799      15841.694      142672.79      41.473471      41.473471      82.946942          16000 
     33000   3812.4827      597393.79      151.38894      600143.45      596965.34      595072.6       1376.6805     -1323.868       236.13818      7884.3403      8065.3971      15949.737      142763.93      41.4823        41.4823        82.9646            16000 
     34000   3775.3928      604212.63      157.97052      604658.67      602399.22      605580        -2739.1531     -228.64607     -62.48117       7807.6372      8087.2891      15894.926      142448.38      41.451716      41.451716      82.903431          16000 
     35000   3824.8924      604958.37      164.55119      603314.51      603915.19      607645.42      3783.332      -2249.6073      186.59149      7910.0039      8151.2315      16061.235      142414.19      41.448399      41.448399      82.896798          16000 
     36000   3823.9234      596788.85      171.13186      597671.82      595476.57      597218.15      342.70724     -60.088341     -833.84052      7907.9999      8055.1422      15963.142      142708.38      41.476919      41.476919      82.953839          16000 
     37000   3743.8283      596614.09      177.71291      596636.71      596401.76      596803.81      3046.7689      2781.2307     -1857.5194      7742.3606      8064.8799      15807.241      142706.81      41.476767      41.476767      82.953534          16000 
     38000   3848.8237      600083.18      184.2947       597972.55      601169.67      601107.33      1637.4238     -884.47802     -4159.4735      7959.4946      8039.8355      15999.33       142601.76      41.466587      41.466587      82.933174          16000 
     39000   3795.6051      602013.28      190.87473      601951.47      602687.61      601400.76     -1301.4304      1108.5032      1575.5343      7849.4369      8089.3899      15938.827      142514.83      41.45816       41.45816       82.916319          16000 
     40000   3828.3988      594602.56      197.45717      594726.45      596049.7       593031.53      588.16061     -2803.3218      1017.515       7917.2553      7981.279       15898.534      142797.03      41.485506      41.485506      82.971012          16000 
     41000   3794.7482      592941.55      204.03694      593806.25      590437.87      594580.53     -3242.4816      3974.8391     -4251.2041      7847.6647      7991.8095      15839.474      142811.18      41.486877      41.486877      82.973753          16000 
     42000   3844.2263      604758.8       210.61883      604841.08      603077.69      606357.62      2184.8797      2560.6054      2716.263       7949.9871      8033.7469      15983.734      142410.28      41.448019      41.448019      82.896038          16000 
     43000   3812.934       600387.36      217.20203      601334.06      597801.12      602026.9       184.71001      567.95756      2116.3617      7885.2737      8072.3984      15957.672      142531.32      41.459759      41.459759      82.919517          16000 
     44000   3803.8545      599883.9       223.78415      597697.01      601822.07      600132.61     -727.59055     -2564.8717      2203.8656      7866.4969      7943.1142      15809.611      142516.74      41.458345      41.458345      82.916689          16000 
     45000   3785.8864      602331.08      230.36499      605176.41      599690         602126.82     -285.32514      3417.6175      578.72323      7829.3382      8144.5695      15973.908      142554.18      41.461975      41.461975      82.923951          16000 
     46000   3826.3714      605469.6       236.9477       604841.79      607785.05      603781.98      248.09161     -1604.1764     -588.45862      7913.0626      8033.9744      15947.037      142344.43      41.44163       41.44163       82.88326           16000 
     47000   3798.4276      594625.63      243.52923      595850.04      594752.26      593274.59      3486.6067     -1375.4883     -1006.7831      7855.2739      7935.9939      15791.268      142741.96      41.480173      41.480173      82.960346          16000 
     48000   3777.5704      591341.75      250.10607      588940.66      591140.22      593944.37      2301.7538      229.54802     -725.31838      7812.1405      7991.2823      15803.423      142816.39      41.487381      41.487381      82.974762          16000 
     49000   3821.4206      600954.31      256.68366      602406.73      600632.1       599824.09     -629.85109     -4983.6245      3743           7902.8241      8107.6559      16010.48       142578.86      41.464368      41.464368      82.928736          16000 
     50000   3791.1937      601204.75      263.25967      601796.19      603009.38      598808.69     -4223.9874     -2874.7413      2042.3244      7840.3139      8068.6356      15908.95       142522.04      41.458858      41.458858      82.917717          16000 
     51000   3784.1738      595780.16      269.83699      597998.84      593539.43      595802.22     -2900.1964      2327.8913     -2132.7133      7825.7965      8084.6166      15910.413      142788.05      41.484636      41.484636      82.969272          16000 
     52000   3818.5991      599471.05      276.4178       598113.92      599959.82      600339.4       3037.7481     -27.909148      1935.2453      7896.9891      7977.2939      15874.283      142608.45      41.467236      41.467236      82.934472          16000 
     53000   3819.8138      600667.98      282.99752      601496.95      600018.95      600488.03      3314.0576      160.82441     -1074.4966      7899.5011      8074.97        15974.471      142513.82      41.458061      41.458061      82.916123          16000 
     54000   3774.4098      608334.65      289.57969      608113.6       608179.35      608710.99     -898.75568      125.20122     -1167.1518      7805.6042      8150.1863      15955.79       142248.76      41.432343      41.432343      82.864686          16000 
     55000   3834.6271      597859.56      296.16187      596788.52      597679.31      599110.85      2338.1869     -3116.4356      403.77931      7930.1357      8084.6247      16014.76       142656.4       41.471883      41.471883      82.943765          16000 
     56000   3788.5673      595429.7       302.74304      597139.35      594625.12      594524.65      2521.9491      84.448756      2532.5758      7834.8824      7991.9611      15826.843      142713.77      41.477441      41.477441      82.954882          16000 
     57000   3772.7324      600573.9       309.32453      601360.29      602869.06      597492.36     -1124.5854      883.94694     -2842.5911      7802.1354      8080.6664      15882.802      142554.89      41.462044      41.462044      82.924088          16000 
     58000   3811.3352      603990.23      315.90648      604519.66      604431.04      603020.01      2660.9553     -49.484382      941.34665      7881.9671      8123.3428      16005.31       142454.16      41.452276      41.452276      82.904552          16000 
     59000   3819.9855      601697.92      322.48686      597041.23      603103.2       604949.34     -3052.2309     -98.425865      722.28637      7899.8563      7986.5389      15886.395      142589.21      41.465371      41.465371      82.930742          16000 
     60000   3805.8066      597430.45      329.06776      598479.69      597115.19      596696.47     -286.86936     -4426.53        3126.476       7870.5338      7975.5341      15846.068      142684.29      41.474585      41.474585      82.94917           16000 
     61000   3793.3982      600623.51      335.64793      596917.7       602893.76      602059.07      292.26559     -3004.2734     -2927.1216      7844.8728      8050.1361      15895.009      142551.2       41.461687      41.461687      82.923373          16000 
     62000   3794.1078      601101.5       342.22847      599268.65      601763.59      602272.26     -1039.1627      2885.1827      1664.4842      7846.3403      8148.4707      15994.811      142565         41.463024      41.463024      82.926049          16000 
     63000   3776.1961      596801.43      348.81005      593953.98      598970.51      597479.78      2254.4047     -367.56914     -544.41996      7809.2984      7993.4875      15802.786      142686.88      41.474836      41.474836      82.949673          16000 
     64000   3798.1585      591881.55      355.39269      595083.91      591960.81      588599.92      369.58737     -2997.7543     -1769.0399      7854.7174      8004.8134      15859.531      142896.63      41.495149      41.495149      82.990298          16000 
     65000   3823.1523      602259.04      361.97334      602951.08      600061.33      603764.7      -1479.3893     -2230.427      -1796.7997      7906.4053      8043.326       15949.731      142549.72      41.461543      41.461543      82.923086          16000 
     66000   3826.1826      602831.23      368.55517      602527.35      602630.03      603336.3      -6311.2772     -211.24485      2463.2354      7912.6722      8063.5775      15976.25       142473.79      41.45418       41.45418       82.90836           16000 
     67000   3769.1526      599143.69      375.13453      600648.49      598360.01      598422.56     -1467.8205     -1900.0833     -488.02646      7794.7323      8070.6985      15865.431      142613.26      41.467703      41.467703      82.935405          16000 
     68000   3775.9078      598520.87      381.7143       597606.24      599813.65      598142.71      856.79022     -2850.643       5060.0913      7808.7022      8022.114       15830.816      142635.05      41.469814      41.469814      82.939628          16000 
     69000   3836.7935      597858.33      388.29381      599708.17      597424.23      596442.6       68.170331      626.62949     -1925.2517      7934.6158      8004.5832      15939.199      142672.7       41.473462      41.473462      82.946924          16000 
     70000   3780.1421      604006.85      394.87467      603912.87      602222.35      605885.33      4690.4893     -6.8835827      6057.7756      7817.4589      8050.3032      15867.762      142395.47      41.446582      41.446582      82.893165          16000 
     71000   3826.9604      607141.95      401.45738      607996.34      605918.91      607510.6       1336.6816     -149.62676     -1530.3878      7914.2806      8121.4567      16035.737      142341.13      41.44131       41.44131       82.882619          16000 
     72000   3774.2303      597488.7       408.04325      598042.27      594484.62      599939.2       2836.4896     -1295.9321      3580.0362      7805.233       7955.4129      15760.646      142664.8       41.472697      41.472697      82.945393          16000 
     73000   3810.933       598435.01      414.62697      598651.32      596096.34      600557.38      2787.3197      3853.974      -4082.0056      7881.1355      8070.3594      15951.495      142632.33      41.469551      41.469551      82.939101          16000 
     74000   3805.8141      600406.1       421.21216      602237.26      598690.55      600290.48     -1451.4108      1858.4345      1635.2087      7870.5494      8017.556       15888.105      142551.67      41.461732      41.461732      82.923464          16000 
     75000   3807.3016      598499.41      427.79877      599951.53      596858.28      598688.41      282.5465       4769.5435      2606.5345      7873.6256      8118.1834      15991.809      142662.36      41.47246       41.47246       82.944921          16000 
     76000   3808.429       599036.83      434.38322      598761.73      597838.42      600510.34     -494.49633     -861.96693      1936.9298      7875.9571      8007.8712      15883.828      142616.91      41.468056      41.468056      82.936113          16000 
     77000   3796.0728      593229.29      440.97109      594392.55      593199.93      592095.4       3060.4019     -1139.6259     -1905.3426      7850.4041      8060.2916      15910.696      142806.29      41.486402      41.486402      82.972805          16000 
     78000   3798.583       602959.02      447.56393      601656.36      604030.13      603190.57      1781.7519      1349.0381     -1585.4441      7855.5952      8110.0205      15965.616      142427.99      41.449738      41.449738      82.899475          16000 
     79000   3799.8821      607960.65      454.15867      609588.71      606182.7       608110.53      426.91825      3242.1833     -5001.8139      7858.2818      8241.5719      16099.854      142244.53      41.431932      41.431932      82.863865          16000 
     80000   3807.9986      600453.83      460.75347      599885.57      598100.61      603375.32     -1005.0893     -988.72177     -5141.2629      7875.067       8034.5696      15909.637      142559.31      41.462473      41.462473      82.924945          16000 
     81000   3800.5999      597558.42      467.34957      599244.08      596769.18      596662.01      5587.3289     -5225.2184      2020.811       7859.7661      8029.499       15889.265      142617.84      41.468146      41.468146      82.936291          16000 
     82000   3800.668       600688.53      473.94695      601356.61      599100.3       601608.67     -17.27741      -1578.5802      3802.5634      7859.907       8082.6627      15942.57       142538.23      41.460429      41.460429      82.920858          16000 
     83000   3754.4096      602934.77      480.54598      604064.84      602751.22      601988.26      2255.173      -436.20912      1866.5162      7764.2433      8134.4776      15898.721      142445.43      41.451429      41.451429      82.902859          16000 
     84000   3806.1232      598692.3       487.14406      599942.11      597878.28      598256.52      3537.0021     -3641.284      -3146.5131      7871.1886      8122.3588      15993.547      142630.89      41.469411      41.469411      82.938821          16000 
     85000   3811.7013      593920.19      493.74506      590721.84      594762.39      596276.33     -1946.2899     -454.15589     -819.01073      7882.7243      7952.4872      15835.212      142828.6       41.488563      41.488563      82.977126          16000 
     86000   3787.7832      602182.82      500.34437      602920.64      601091.31      602536.53     -2006.9611      772.0349       2710.6511      7833.261       8037.7133      15870.974      142443.07      41.451201      41.451201      82.902401          16000 
     87000   3790.2121      601786.15      506.9479       601862.17      601580.33      601915.96      589.20375      2722.6857     -2497.4909      7838.284       8158.2301      15996.514      142489.8       41.455733      41.455733      82.911466          16000 
     88000   3779.267       598516.49      513.54871      599914.07      598789.23      596846.16     -5468.5167      2325.0032      431.65684      7815.6492      7964.0942      15779.743      142538.09      41.460415      41.460415      82.92083           16000 
     89000   3812.1768      596967.7       520.15258      596553.94      599687.88      594661.28      190.39454     -137.53021      1891.9945      7883.7078      8012.2768      15895.985      142717.73      41.477826      41.477826      82.955651          16000 
     90000   3774.7289      601264.24      526.75578      599624.45      601959.95      602208.31      346.22401      776.32426     -3284.3496      7806.2641      8065.0561      15871.32       142474.69      41.454267      41.454267      82.908535          16000 
     91000   3829.2495      607848.47      533.35188      607938.84      607034.1       608572.48     -287.60081      477.32469     -1455.4201      7919.0145      8157.5636      16076.578      142281.19      41.435492      41.435492      82.870984          16000 
     92000   3807.7258      596690.91      539.95239      596558.78      597276.54      596237.41     -3002.9625     -4604.6033      5335.6731      7874.5029      8009.4618      15883.965      142708.74      41.476954      41.476954      82.953908          16000 
     93000   3800.7968      598684.21      546.5535       599349.6       598958.92      597744.12      1519.1264     -1470.6063     -5294.9344      7860.1735      7987.5664      15847.74       142654.35      41.471684      41.471684      82.943369          16000 
     94000   3830.6619      601169.06      553.15541      603351.13      599302.02      600854.02      400.4415      -535.05247     -2273.9548      7921.9354      8074.5659      15996.501      142552.24      41.461787      41.461787      82.923574          16000 
     95000   3802.1688      603145.67      559.76022      601819.39      602261.93      605355.71      934.65804      2698.7232      918.21838      7863.0107      8095.3982      15958.409      142514.31      41.458109      41.458109      82.916219          16000 
     96000   3768.5278      598020.16      566.36349      597842.73      596600.96      599616.8      -764.05156      694.42005     -903.03645      7793.4401      8023.4356      15816.876      142603.18      41.466725      41.466725      82.93345           16000 
     97000   3788.9994      591029.29      572.96708      590671.38      590661.46      591755.04     -1987.1547     -2631.5934     -898.40221      7835.776       8061.5156      15897.292      142849.56      41.490593      41.490593      82.981185          16000 
     98000   3829.8059      606508.31      579.56903      607615.13      606768.16      605141.64     -3006.5614      2107.2326      156.53307      7920.1652      7998.3026      15918.468      142316.4       41.438909      41.438909      82.877818          16000 
     99000   3812.4586      602832.79      586.1612       604926.14      600351.33      603220.89     -1260.0254      117.37815     -1128.7354      7884.2905      8114.8388      15999.129      142456.83      41.452535      41.452535      82.90507           16000 
    100000   3794.6126      598563.64      592.75784      598904.36      598349.21      598437.37     -3206.076      -2266.0339      1335.2244      7847.3842      8107.0943      15954.478      142631.82      41.469501      41.469501      82.939002          16000 
    101000   3755.9837      599760.55      599.34793      599226.11      598459.6       601595.94     -711.43717      4200.7822      1188.1306      7767.4985      8019.0334      15786.532      142574.93      41.463987      41.463987      82.927974          16000 
    102000   3803.7754      598632.56      605.93463      597765.16      598569.5       599563        -2440.4393      1456.6524     -108.00346      7866.3334      8050.2983      15916.632      142657.88      41.472027      41.472027      82.944054          16000 
    103000   3809.1834      596136.86      612.51889      595528.3       595338.71      597543.58     -729.1031       1485.4848     -471.62044      7877.5173      8011.8245      15889.342      142669.93      41.473194      41.473194      82.946388          16000 
    104000   3797.4353      604603.63      619.10359      605420.77      605973.57      602416.55      1290.5697     -1130.5404     -2502.7885      7853.2217      8161.7842      16015.006      142399.24      41.446949      41.446949      82.893897          16000 
    105000   3761.1097      604296.82      625.68763      604927.13      604824.09      603139.24      2428.7539      2190.5558     -1576.4795      7778.0992      8089.6209      15867.72       142378.63      41.444948      41.444948      82.889897          16000 
    106000   3808.2949      597273.22      632.26965      597298.55      598474.08      596047.04     -214.95892     -2541.7173      433.62711      7875.6798      8042.3743      15918.054      142720.31      41.478075      41.478075      82.95615           16000 
    107000   3752.1426      597429.34      638.85144      598212.65      598786.88      595288.5       778.87263     -319.25062      537.91543      7759.555       8029.8209      15789.376      142628.88      41.469216      41.469216      82.938431          16000 
    108000   3784.5362      600178.76      645.43082      598947.45      601039.64      600549.2      -955.17834      655.77281      364.67852      7826.5461      8063.5184      15890.064      142555.99      41.462151      41.462151      82.924302          16000 
    109000   3797.3281      603362.57      652.00973      602550.66      604064.89      603472.15      728.82408     -3554.1316      3869.7127      7853           8040.6952      15893.695      142442.55      41.451149      41.451149      82.902299          16000 
    110000   3782.1958      603681.74      658.58821      604012.6       604429.45      602603.18      1085.3687     -51.29936       452.33582      7821.7059      8195.2618      16016.968      142429.95      41.449927      41.449927      82.899855          16000 
    111000   3765.2762      591780.33      665.17055      592313.89      590776.65      592250.46      1373.3324      969.78622      510.44652      7786.7158      7928.6712      15715.387      142765.08      41.482412      41.482412      82.964823          16000 
    112000   3783.3022      596378.29      671.75482      597434.32      595559.51      596141.05     -685.17436      2479.0044      1118.9148      7823.994       7975.9378      15799.932      142672.96      41.473488      41.473488      82.946976          16000 
    113000   3828.1983      601361.83      678.33936      600029.88      601047.62      603008        -2978.459      -5251.3189     -2786.1284      7916.8407      8106.0159      16022.857      142569.89      41.463498      41.463498      82.926997          16000 
    114000   3807.183       603217.72      684.9217       604394.26      603677.73      601581.17      3015.7399      1034.746      -1628.2537      7873.3804      8043.5773      15916.958      142469.45      41.453759      41.453759      82.907518          16000 
    115000   3819.385       597187.62      691.50535      598822.48      595443.29      597297.11      2776.7535     -461.27869      2797.0803      7898.6144      7988.8429      15887.457      142692.96      41.475426      41.475426      82.950851          16000 
    116000   3751.9397      599072.63      698.08914      599916.45      599026.11      598275.33     -1172.9247     -2277.3317      3327.5154      7759.1353      8013.7433      15772.879      142587.57      41.465212      41.465212      82.930424          16000 
    117000   3808.6325      605796.4       704.67113      603322.51      606554.12      607512.56     -460.25251      3827.6472      2125.3817      7876.378       8101.8489      15978.227      142472.19      41.454025      41.454025      82.908049          16000 
    118000   3749.3662      601656.77      711.25454      601915.61      598624.5       604430.2       4204.1718      4126.0807     -555.43717      7753.8133      8066.9144      15820.728      142461.19      41.452958      41.452958      82.905915          16000 
    119000   3777.189       593753.22      717.83895      592814.14      596192.05      592253.47     -719.00289     -1271.835       3412.3538      7811.3518      8045.4989      15856.851      142830.53      41.48875       41.48875       82.977499          16000 
    120000   3772.6677      593652.81      724.42064      592267.24      594692.38      593998.82      2641.2996      1297.6921     -292.74371      7802.0015      7902.753       15704.754      142775.7       41.483441      41.483441      82.966881          16000 
    121000   3791.9155      602751.53      731.01661      599552.18      604648.28      604054.11      2275.5053      3606.1549      1020.7856      7841.8065      8137.8375      15979.644      142445.65      41.45145       41.45145       82.9029            16000 
    122000   3748.9827      606178.62      737.61175      606567.24      606034.06      605934.55      2412.1341     -425.36447      5806.0894      7753.0202      8096.1025      15849.123      142350.9       41.442257      41.442257      82.884515          16000 
    123000   3818.3833      596933.89      744.2093       597239.49      595300.89      598261.3       384.77067      1371.8893      1151.8801      7896.543       8044.192       15940.735      142639.5       41.470245      41.470245      82.940491          16000 
    124000   3804.6074      596051.9       750.80787      596337.85      594809.4       597008.45      996.94752      3488.9301     -3010.16        7868.0539      8006.5564      15874.61       142688.71      41.475014      41.475014      82.950027          16000 
    125000   3770.2824      599707.11      757.40689      598428.88      599005.49      601686.96     -4890.0514     -539.70866      2699.6292      7797.0687      8085.2737      15882.342      142602.55      41.466664      41.466664      82.933327          16000 
    126000   3783.1129      601870.19      764.00798      599594.23      604330.85      601685.5      -2478.4499     -1367.4715     -236.08608      7823.6026      8131.3815      15954.984      142537.23      41.460331      41.460331      82.920663          16000 
    127000   3794.9729      602509.8       770.61224      602552.9       602860.41      602116.1       3566.4093      285.6782       4349.9721      7848.1293      8082.3394      15930.469      142470.26      41.453837      41.453837      82.907674          16000 
    128000   3736.3508      590026.01      777.21657      589510.39      591165.34      589402.29      3324.4708      318.10631     -1188.1545      7726.8969      7969.3238      15696.221      142895.52      41.495041      41.495041      82.990083          16000 
    129000   3767.4596      596750.43      783.81943      598853.5       595585.55      595812.23     -1708.3047      5466.872       3877.9218      7791.2311      8098.8865      15890.118      142707.75      41.476859      41.476859      82.953717          16000 
    130000   3756.7418      603011.71      790.42245      602367.74      605341.52      601325.88      897.62101      3367.3422      1413.6746      7769.0662      8131.3603      15900.426      142462.53      41.453088      41.453088      82.906176          16000 
    131000   3783.9215      599541.51      797.02511      601065.15      598663.97      598895.41      2703.8298     -1532.6867     -1953.9975      7825.2748      8124.8981      15950.173      142607.09      41.467104      41.467104      82.934209          16000 
    132000   3843.5338      601259.8       803.62452      598992.33      603666.46      601120.6       1291.0715      1542.6336      45.13091       7948.555       8050.0546      15998.61       142637.02      41.470005      41.470005      82.94001           16000 
    133000   3785.1046      596040.21      810.22469      595462.74      595415.33      597242.56     -1537.922      -7537.3638      2599.9933      7827.7215      8006.5214      15834.243      142728.39      41.478858      41.478858      82.957716          16000 
    134000   3851.2954      604891.7       816.82806      604218.63      605957.79      604498.67     -3263.5678      1423.7018     -1808.5082      7964.6061      8141.0031      16105.609      142472.29      41.454035      41.454035      82.90807           16000 
    135000   3828.7257      606712.99      823.43077      608114.78      607724.31      604299.89      2370.3837     -2965.8382     -302.28902      7917.9313      8073.1         15991.031      142362.7       41.443403      41.443403      82.886806          16000 
    136000   3769.3847      599417.18      830.03369      599878.02      600082.01      598291.5      -767.47584      3622.5865     -463.33821      7795.2122      8056.0828      15851.295      142581.78      41.464651      41.464651      82.929302          16000 
    137000   3792.5827      596188.21      836.63894      597147.85      595763.55      595653.24      965.4161      -554.78078      305.17066      7843.1865      7927.6283      15770.815      142664.34      41.472652      41.472652      82.945304          16000 
    138000   3807.3929      602754.89      843.24102      603209.39      602126.26      602929.04      2061.3165      294.08745     -5059.8752      7873.8145      8090.327       15964.141      142447.78      41.451657      41.451657      82.903314          16000 
    139000   3766.2386      605012.15      849.84433      603130.33      604057.11      607849.01      165.42256      224.80773     -2406.1882      7788.7059      8213.3004      16002.006      142409.81      41.447973      41.447973      82.895947          16000 
    140000   3808.5484      598442.42      856.45124      598665.83      598351.14      598310.28     -543.03717      82.881215     -580.99709      7876.2039      8038.4619      15914.666      142630.01      41.469325      41.469325      82.938651          16000 
    141000   3794.2961      596435.51      863.05578      594366.13      595718.99      599221.4       241.60454      3108.211      -2057.4438      7846.7297      7915.6423      15762.372      142708.94      41.476974      41.476974      82.953948          16000 
    142000   3831.2849      597855.12      869.65814      599113.97      596682.55      597768.85     -288.25236      306.50387      2121.6634      7923.2238      8027.3232      15950.547      142710.67      41.477142      41.477142      82.954283          16000 
    143000   3786.9758      604329.27      876.26218      601170.41      604627.61      607189.78      3532.9286      1551.081      -883.98298      7831.5911      8041.4933      15873.084      142481.47      41.454925      41.454925      82.90985           16000 
    144000   3855.882       601865.06      882.86864      599998.65      601862.73      603733.81     -823.56113     -3122.106       1565.073       7974.0914      8056.438       16030.529      142577.2       41.464207      41.464207      82.928414          16000 
    145000   3788.9258      594621.31      889.47255      595998.68      594311.2       593554.06     -2579.1102      1329.0112     -1756.2996      7835.6238      7953.6735      15789.297      142792.99      41.485115      41.485115      82.970229          16000 
    146000   3832.1327      597180.91      896.07652      598436.54      596210.64      596895.55     -1531.3413     -2039.0499      1069.2748      7924.9771      8085.8574      16010.835      142656.37      41.47188       41.47188       82.94376           16000 
    147000   3797.8957      602621.78      902.68153      604574.56      603191.37      600099.43      817.5835      -2536.2063      121.33063      7854.1739      8070.5005      15924.674      142405.63      41.447569      41.447569      82.895137          16000 
    148000   3773.0315      599595.8       909.28392      600845.79      596606.08      601335.54     -3093.6709     -1809.0836     -1568.5564      7802.7538      8143.0927      15945.847      142698.27      41.47594       41.47594       82.951879          16000 
    149000   3766.0798      596808.12      915.88623      598717.38      596291.41      595415.56      422.54232     -1895.6435      2396.2835      7788.3776      8006.1783      15794.556      142711.85      41.477256      41.477256      82.954511          16000 
    150000   3794.6792      602348.91      922.49033      601824.02      602821.67      602401.04      5204.4282     -2886.8843      1461.7628      7847.522       8124.5082      15972.03       142498.5       41.456577      41.456577      82.913153          16000 
    151000   3846.6284      604000.8       929.09524      603224.13      604044.72      604733.55     -2090.4149      3009.3976      284.31712      7954.9548      8153.4097      16108.364      142493.12      41.456054      41.456054      82.912109          16000 
    152000   3787.5185      597954.88      935.6983       598455.35      596657.16      598752.13      1579.9102      2839.2437      1723.1669      7832.7134      7982.6107      15815.324      142650.46      41.471307      41.471307      82.942614          16000 
    153000   3817.1325      601471.54      942.30831      601457.89      603107.19      599849.53      227.67185     -1203.4318     -1488.2506      7893.9562      8044.395       15938.351      142512.38      41.457922      41.457922      82.915845          16000 
    154000   3802.8105      602830.39      948.91424      602336.64      603285.51      602869.01     -2211.8725     -234.87126      799.09759      7864.3378      8118.0905      15982.428      142523.2       41.458971      41.458971      82.917942          16000 
    155000   3771.561       594462.94      955.51736      593847.2       593617.58      595924.04      1069.1379      1650.7607     -3880.4091      7799.7129      8000.6338      15800.347      142787.96      41.484628      41.484628      82.969256          16000 
    156000   3827.3798      597526.49      962.12192      597724.54      597034.73      597820.22      569.76193      3781.1464     -1720.3443      7915.148       8012.1186      15927.267      142780.08      41.483864      41.483864      82.967729          16000 
    157000   3806.0237      604015.01      968.72843      604530.47      603864.26      603650.3       825.63137      287.76774      440.39774      7870.9829      8105.1018      15976.085      142454.47      41.452306      41.452306      82.904612          16000 
    158000   3805.3138      602634.33      975.33301      600792.31      605345.21      601765.48      1136.9433      1498.3118     -2738.9713      7869.5146      8130.1376      15999.652      142412.38      41.448223      41.448223      82.896445          16000 
    159000   3759.329       596856.17      981.93925      596575.65      595673.62      598319.23      889.28851     -3124.9561      132.18876      7774.4166      8045.0594      15819.476      142625.15      41.468855      41.468855      82.93771           16000 
    160000   3795.385       596665.58      988.54394      595224.9       595954.34      598817.5      -110.33956      910.57513      434.5858       7848.9817      7999.8755      15848.857      142707.21      41.476806      41.476806      82.953612          16000 
    161000   3807.8872      599455.65      995.14538      599964.93      599359.4       599042.62     -1212.2853     -69.137494      1777.5622      7874.8366      8112.4666      15987.303      142644.89      41.470767      41.470767      82.941534          16000 
    162000   3840.5684      604899.39      1001.7513      603390         606349.42      604958.76      915.17909      3045.1119     -1044.2028      7942.4223      8076.6151      16019.037      142377.85      41.444873      41.444873      82.889745          16000 
    163000   3778.4242      601040.19      1008.3576      600830.33      600673.27      601616.97     -234.99005     -795.59494      2426.0896      7813.9062      8095.4651      15909.371      142449.71      41.451845      41.451845      82.903689          16000 
    164000   3777.1733      594666.77      1014.9579      595117.87      592888.54      595993.89     -2175.5811      4951.0747     -760.76502      7811.3193      8026.8502      15838.169      142765.58      41.482461      41.482461      82.964921          16000 
    165000   3816.0695      597926.23      1021.5631      596326.57      596571.74      600880.37     -1183.8982      1717.8994      4823.2945      7891.7578      8118.7041      16010.462      142661.39      41.472366      41.472366      82.944733          16000 
    166000   3776.6533      604715.93      1028.1678      608610.62      602872.7       602664.49      159.05013      2435.0756     -739.77834      7810.2438      8113.9851      15924.229      142356.61      41.442811      41.442811      82.885623          16000 
    167000   3816.5152      602873.67      1034.7707      604193.41      600882.85      603544.75     -5003.6812      1978.7541      1649.221       7892.6797      8144.5608      16037.24       142478.05      41.454593      41.454593      82.909185          16000 
    168000   3789.4948      596821.07      1041.3764      598528.54      594416.86      597517.82      363.93682     -2915.3932      536.27508      7836.8004      8078.3067      15915.107      142692.41      41.475372      41.475372      82.950744          16000 
    169000   3792.9551      599717.55      1047.9796      602178.98      599045.03      597928.63      4363.3156     -480.84594     -1244.1471      7843.9565      8044.8194      15888.776      142508.94      41.457588      41.457588      82.915177          16000 
    170000   3752.8244      603007.6       1054.5824      601992.57      602549.58      604480.67     -1432.1663     -3229.189      -386.23625      7760.9649      8156.5389      15917.504      142438.8       41.450786      41.450786      82.901571          16000 
    171000   3785.7936      597752.13      1061.1867      598255.2       597484.76      597516.44     -3647.5616      4078.6721      3485.5245      7829.1463      8158.8638      15988.01       142677.51      41.473928      41.473928      82.947857          16000 
    172000   3789.5764      594833.48      1067.7901      594349.88      594415.47      595735.08     -3348.4838     -1287.845       3379.9224      7836.9694      7981.6857      15818.655      142762.54      41.482166      41.482166      82.964331          16000 
    173000   3767.6917      601564.73      1074.3928      599445.39      603059.79      602189.01     -1186.1513      1006.898       1201.7009      7791.711       8057.8895      15849.6        142471.58      41.453965      41.453965      82.907931          16000 
    174000   3810.3865      602917.19      1080.997       601670.8       603769.96      603310.82      1695.8163      2844.2534      1733.1701      7880.0052      8093.0058      15973.011      142529.08      41.459541      41.459541      82.919082          16000 
    175000   3777.715       598852.47      1087.6021      597169.62      600393.29      598994.5      -1330.2401      706.81863      1037.2099      7812.4396      7886.8476      15699.287      142610.47      41.467431      41.467431      82.934863          16000 
    176000   3783.2337      598051.62      1094.2041      599270.48      596171.28      598713.11      2285.6419     -1910.5193     -411.90398      7823.8523      8021.0608      15844.913      142616.35      41.468002      41.468002      82.936003          16000 
    177000   3849.9401      603213.03      1100.8086      602975.71      604539.61      602123.77      2331.3478     -1019.4901     -30.521477      7961.8034      8134.7753      16096.579      142484.51      41.455219      41.455219      82.910438          16000 
    178000   3798.0659      601206.89      1107.4128      602874.77      599116.58      601629.31      1483.7411     -2590.0627      324.65799      7854.5258      8079.2924      15933.818      142515.62      41.458236      41.458236      82.916473          16000 
    179000   3787.694       597207.69      1114.0136      595500.93      598546.32      597575.82      4994.3898      84.278779     -466.10087      7833.0764      7965.1993      15798.276      142712.73      41.477341      41.477341      82.954682          16000 
    180000   3797.0633      600285.63      1120.6163      600794.49      598065.01      601997.39      1458.8072     -2099.6706      1992.0987      7852.4523      8059.0789      15911.531      142650.83      41.471344      41.471344      82.942687          16000 
    181000   3851.2703      610202.27      1127.2188      611048.93      610499.34      609058.52     -16.37503      -1560.2398     -2014.3921      7964.5543      8193.9596      16158.514      142259.96      41.433431      41.433431      82.866862          16000 
    182000   3817.2513      601774.5       1133.8209      601917.64      602943.34      600462.51     -2132.147      -431.30141      771.06837      7894.2019      7978.9553      15873.157      142529.78      41.45961       41.45961       82.919219          16000 
    183000   3789.0659      595026.63      1140.4248      593562.45      594664.35      596853.11      5463.7861      4145.5772      1322.2634      7835.9135      8100.9545      15936.868      142797.23      41.485525      41.485525      82.971051          16000 
    184000   3796.9702      598671.15      1147.028       601446.51      597927.89      596639.04      1164.2225      1441.1115     -696.39709      7852.2599      7999.2749      15851.535      142630.17      41.469341      41.469341      82.938681          16000 
    185000   3799.7128      601980.7       1153.633       600281.49      602405.38      603255.22      5841.5043      252.9271      -786.65932      7857.9316      8109.6354      15967.567      142487.22      41.455482      41.455482      82.910965          16000 
    186000   3775.524       610559.37      1160.2367      610282.26      611656.65      609739.2      -145.43365      2826.0959      3933.6844      7807.9084      8125.7745      15933.683      142186.47      41.426295      41.426295      82.85259           16000 
    187000   3800.8384      594276.34      1166.8518      592369.73      596256.28      594203        -1308.9634      2551.0822     -6161.3923      7860.2594      8051.6619      15911.921      142729.05      41.478922      41.478922      82.957844          16000 
    188000   3787.9597      595846.11      1173.4515      596035.28      595875.5       595627.54      1279.8038      29.696174     -1503.4611      7833.6258      7993.2618      15826.888      142735.46      41.479543      41.479543      82.959085          16000 
    189000   3798.4971      600221.22      1180.0542      598931.38      600017.34      601714.94     -1470.0161      1870.6828     -1686.1161      7855.4175      8056.4072      15911.825      142615.22      41.467892      41.467892      82.935784          16000 
    190000   3816.1         603734.74      1186.6575      606241.87      604218.23      600744.12      70.408229      1521.5999     -5056.1533      7891.821       8151.2128      16043.034      142450.67      41.451938      41.451938      82.903875          16000 
    191000   3827.9751      598274.23      1193.2611      599569.93      595962.88      599289.86     -1015.1932     -643.05032      288.24186      7916.379       8041.8444      15958.223      142635.94      41.4699        41.4699        82.9398            16000 
    192000   3787.6951      593746.41      1199.8643      593872.17      596506.02      590861.06      149.13184     -3958.723      -4070.3103      7833.0787      7940.5208      15773.599      142766.17      41.482518      41.482518      82.965036          16000 
    193000   3838.567       600766.24      1206.4655      600363.58      601019.73      600915.4       1448.8315     -3333.9407     -896.51645      7938.2834      8055.8058      15994.089      142615.8       41.467948      41.467948      82.935896          16000 
    194000   3743.0445      603307.01      1213.0671      603291.36      603912.43      602717.22      1788.5544      489.56935     -1579.6632      7740.7397      8051.9579      15792.698      142413.23      41.448305      41.448305      82.896611          16000 
    195000   3800.5422      596850.61      1219.6696      596988.77      596747.91      596815.16      1629.772      -1914.1211     -603.50883      7859.647       8036.6288      15896.276      142704.14      41.476509      41.476509      82.953018          16000 
    196000   3769.7654      598575.89      1226.2709      600369.67      596086.26      599271.74      803.79925      6190.9524      266.23601      7795.9995      8035.2271      15831.227      142608.55      41.467246      41.467246      82.934492          16000 
    197000   3814.8727      606100.37      1232.8739      605485.27      608364.46      604451.39      781.37328     -398.74302     -2672.1924      7889.2828      8152.6606      16041.943      142320.07      41.439266      41.439266      82.878532          16000 
    198000   3819.5712      600901.47      1239.4796      599562.14      603625.77      599516.5       565.08762     -1273.9043     -686.952        7898.9995      8067.4969      15966.496      142525.59      41.459204      41.459204      82.918407          16000 
    199000   3835.5729      597614.21      1246.0813      598873.8       598552.39      595416.44     -2728.6564      699.16944     -3653.7903      7932.0916      8036.4583      15968.55       142684.61      41.474616      41.474616      82.949232          16000 
    200000   3810.4678      601019.24      1252.69        601752.43      600405.13      600900.17     -2.2034516     -126.88076     -74.603966      7880.1734      8015.6225      15895.796      142518.18      41.458485      41.458485      82.91697           16000 
    201000   3787.0718      600020.57      1259.2933      597839.53      600189.12      602033.06      1776.6121      606.31413     -1602.1082      7831.7896      8014.2933      15846.083      142443.32      41.451224      41.451224      82.902449          16000 
    202000   3795.1819      600131.01      1265.8977      601120.8       598754.5       600517.71      912.20162     -3042.996      -489.33507      7848.5615      8124.1366      15972.698      142584.57      41.464921      41.464921      82.929842          16000 
    203000   3798.5762      601811.77      1272.5019      601001.64      600752.41      603681.25     -1151.7013     -1558.5533     -1068.0216      7855.5812      8153.5442      16009.125      142547.86      41.461363      41.461363      82.922725          16000 
    204000   3796.6695      601576.64      1279.1073      602313.62      601814.44      600601.85     -3105.9548     -591.70273      1308.7698      7851.638       8032.4696      15884.108      142535.46      41.46016       41.46016       82.92032           16000 
    205000   3817.9571      593528.64      1285.7071      593772.87      593966.71      592846.33      1436.8554     -1581.5585     -1616.4387      7895.6615      7917.2802      15812.942      142854.44      41.491065      41.491065      82.98213           16000 
    206000   3828.9544      599651.59      1292.309       599997.8       600242.51      598714.45     -143.63337     -3445.3016     -1874.5362      7918.4044      8119.2231      16037.627      142606.62      41.467059      41.467059      82.934117          16000 
    207000   3788.7341      606660.69      1298.9118      605481         609011.75      605489.3       455.47245     -19.122463     -5679.3935      7835.2274      8087.3753      15922.603      142336.36      41.440847      41.440847      82.881693          16000 
    208000   3823.6344      602619.18      1305.5112      602823.18      603707.75      601326.61      311.25535      3311.8456      1663.7893      7907.4024      8071.1734      15978.576      142508.78      41.457573      41.457573      82.915145          16000 
    209000   3775.7146      598869.79      1312.1144      597630.64      599886.08      599092.64      1140.8375      1528.5252      4047.0194      7808.3026      7989.5297      15797.832      142554.59      41.462015      41.462015      82.92403           16000 
    210000   3767.8819      600069.01      1318.716       599756.99      602424.61      598025.44     -1293.5837     -928.45194     -3902.2786      7792.1043      8123.6261      15915.73       142573.48      41.463846      41.463846      82.927692          16000 
    211000   3761.4812      607250.24      1325.3152      607390.57      607749.36      606610.8       2592.9983      4994.4786     -1742.8062      7778.8675      8125.5727      15904.44       142260.79      41.433512      41.433512      82.867023          16000 
    212000   3810.2342      600445.53      1331.9163      599227.25      602397.38      599711.95     -2264.3831      86.109691      668.88948      7879.6902      8038.8479      15918.538      142531.9       41.459815      41.459815      82.919631          16000 
    213000   3759.1504      594597.82      1338.5156      595027.23      593608.41      595157.8       2013.7356      922.70607     -5781.3607      7774.0472      8051.1528      15825.2        142785.98      41.484436      41.484436      82.968871          16000 
    214000   3839.6685      599876.87      1345.1139      596952.24      600664.8       602013.58      867.91592     -503.17856     -1070.5006      7940.5615      8026.6908      15967.252      142559.26      41.462468      41.462468      82.924936          16000 
    215000   3787.2535      603756.28      1351.7134      603050.46      604014.24      604204.15     -4121.4947      1984.8131     -41.476107      7832.1655      8034.8759      15867.041      142400.58      41.447078      41.447078      82.894157          16000 
    216000   3814.369       599022.25      1358.3154      601303.74      598736.05      597026.97     -662.1512       1052.4092     -978.14184      7888.2412      8045.9109      15934.152      142568.78      41.46339       41.46339       82.92678           16000 
    217000   3816.0128      594903.9       1364.9202      595027.27      593859.82      595824.62      102.60146     -1466.067      -2164.4993      7891.6407      7961.0111      15852.652      142703.29      41.476426      41.476426      82.952852          16000 
    218000   3793.9964      604319.42      1371.5258      605925.97      601136.65      605895.65      610.3085      -1825.9585      937.46369      7846.1099      8068.5024      15914.612      142384.19      41.445488      41.445488      82.890975          16000 
    219000   3812.3078      607267.86      1378.1278      605495.57      611698.94      604609.08     -2056.9011      1106.4376      2571.7733      7883.9786      8150.6306      16034.609      142271.93      41.434593      41.434593      82.869186          16000 
    220000   3818.036       596295.63      1384.7325      596458.27      595420.37      597008.25      385.79334     -203.4326       4351.7597      7895.8246      8032.4592      15928.284      142747.26      41.480686      41.480686      82.961372          16000 
    221000   3800.8809      594701.43      1391.3352      594226.82      592449.31      597428.17     -969.86653     -568.22266      420.815        7860.3474      7965.4592      15825.807      142800.14      41.485808      41.485808      82.971615          16000 
    222000   3761.4563      603703.14      1397.9393      604652.33      603999.11      602457.96      443.48774     -2608.8571     -3037.3575      7778.8161      8129.203       15908.019      142408.67      41.447863      41.447863      82.895727          16000 
    223000   3802.9802      603699.04      1404.5454      603585.85      603127.02      604384.25     -44.862529     -430.43861     -477.58224      7864.6888      8158.1396      16022.828      142421.07      41.449066      41.449066      82.898132          16000 
    224000   3766.0558      597770.22      1411.1495      596441.82      599230.98      597637.85      1148.8067     -1831.5534      2266.4418      7788.3279      8097.0589      15885.387      142590.45      41.465491      41.465491      82.930982          16000 
    225000   3765.46        595545.65      1417.7531      595291.74      596837.13      594508.07     -634.17068      250.7964       594.06738      7787.0957      8056.1554      15843.251      142654.41      41.47169       41.47169       82.943381          16000 
    226000   3817.997       600223.73      1424.3555      600559.83      600420.42      599690.92     -503.01208     -3302.0858     -1246.4072      7895.7441      8032.5343      15928.278      142547.38      41.461316      41.461316      82.922631          16000 
    227000   3811.692       601775.24      1430.9569      600805.73      602817.81      601702.17     -1860.7302     -2430.7354      523.87167      7882.705       8098.9666      15981.672      142514.22      41.458101      41.458101      82.916201          16000 
    228000   3792.5278      595281.76      1437.5567      595525.83      596060.61      594258.84      1814.3093     -125.30785      2775.9144      7843.0728      7934.3635      15777.436      142772.64      41.483144      41.483144      82.966288          16000 
    229000   3786.0917      594269.33      1444.1605      593597.78      593183.04      596027.18     -2552.3652      2191.6091      3823.9225      7829.7627      8021.4687      15851.231      142783.51      41.484196      41.484196      82.968393          16000 
    230000   3798.6818      603193.27      1450.7629      602347.97      603530.79      603701.04      1142.6717     -3399.9762      2369.7362      7855.7996      8097.8717      15953.671      142427.68      41.449707      41.449707      82.899414          16000 
    231000   3835.0831      602861.58      1457.3633      603239.18      601661.25      603684.31     -2342.563       530.30656      2866.1176      7931.0786      8090.0307      16021.109      142458.05      41.452653      41.452653      82.905306          16000 
    232000   3771.9365      596568.43      1463.9627      595391.2       596258.33      598055.77     -2880.321       5777.511      -2324.5158      7800.4895      7979.5031      15779.993      142648.1       41.471079      41.471079      82.942157          16000 
    233000   3788.2152      595836.73      1470.5601      595892.82      597663.96      593953.4      -411.15157     -3497.9729      3423.5101      7834.1543      8064.7119      15898.866      142700.88      41.476193      41.476193      82.952386          16000 
    234000   3790.8713      601690.14      1477.1581      600695.59      601833.35      602541.5       888.28102     -6325.6076     -1405.8569      7839.6472      8001.2156      15840.863      142486.9       41.455451      41.455451      82.910903          16000 
    235000   3812.5256      597033.94      1483.7559      595683.12      598196.81      597221.88     -343.96244      2110.6948     -1536.3142      7884.429       8036.0021      15920.431      142662.26      41.472451      41.472451      82.944903          16000 
    236000   3768.6404      598413.81      1490.354       598606.26      597909.75      598725.42     -1175.2381      1316.8366     -3738.5711      7793.673       8090.9806      15884.654      142656.17      41.471861      41.471861      82.943721          16000 
    237000   3763.0125      592444.6       1496.951       595485.11      592088.61      589760.07      4053.3272     -3213.8         1146.1839      7782.0342      7972.072       15754.106      142796.44      41.485449      41.485449      82.970897          16000 
    238000   3810.8387      601526.61      1503.5523      600497.13      603131.18      600951.52      3456.4588     -3996.0517     -1427.5496      7880.9404      8151.0188      16031.959      142458.68      41.452714      41.452714      82.905428          16000 
    239000   3803.27        602277.97      1510.1572      600229.79      604254.1       602350.02      936.35455     -1774.4475      1228.0222      7865.2881      8065.731       15931.019      142412.7       41.448254      41.448254      82.896509          16000 
    240000   3796.2067      597499.05      1516.762       598011.02      597676.32      596809.79     -719.67417     -1614.6321     -876.38017      7850.6809      7951.4991      15802.18       142642.34      41.47052       41.47052       82.941041          16000 
    241000   3794.0963      601458.57      1523.3747      602500.98      599992.52      601882.23      1597.4839      4086.485      -1811.0903      7846.3166      8056.4278      15902.744      142542.27      41.460821      41.460821      82.921641          16000 
    242000   3812.398       607029.77      1529.9775      606543.94      607617.41      606927.95      2771.6404     -2294.0797     -322.96803      7884.1651      8179.1306      16063.296      142361.26      41.443263      41.443263      82.886527          16000 
    243000   3770.3255      593498.51      1536.5817      595581.57      591287.16      593626.81      4110.9844     -3200.4443      893.2277       7797.1578      7968.7164      15765.874      142859.75      41.491579      41.491579      82.983159          16000 
    244000   3812.2213      597376.44      1543.1823      599716.25      596283.97      596129.1      -108.06608      2227.4965     -2896.2217      7883.7998      7986.4253      15870.225      142701.35      41.476238      41.476238      82.952477          16000 
    245000   3847.3416      601541.28      1549.787       602081         601173.14      601369.71      1859.9905     -453.82397     -4193.5434      7956.4296      8039.5774      15996.007      142547.92      41.461368      41.461368      82.922736          16000 
    246000   3774.543       604021.14      1556.39        605191.61      604167.56      602704.25     -1198.1574     -3049.9419      2334.4587      7805.8796      8035.7147      15841.594      142447.98      41.451676      41.451676      82.903352          16000 
    247000   3836.0856      591362.51      1562.9941      590705.12      590362.76      593019.64     -1637.6337     -4806.187      -2922.5981      7933.1518      7943.7136      15876.865      142945.95      41.499923      41.499923      82.999846          16000 
    248000   3779.1312      598216.38      1569.5949      598178.95      597158.59      599311.59      1589.1084      1006.0569      1131.2065      7815.3683      8077.6689      15893.037      142607.15      41.46711       41.46711       82.934221          16000 
    249000   3814.6802      603232.35      1576.1942      602672.97      604894.83      602129.24     -703.35832     -854.38198     -636.60641      7888.8847      8074.0609      15962.946      142447.01      41.451582      41.451582      82.903164          16000 
    250000   3860.0069      601609.55      1582.7935      599778.39      602763.9       602286.35     -416.64895      3030.6825      453.31397      7982.6218      8155.6061      16138.228      142670.11      41.473212      41.473212      82.946424          16000 
    251000   3801.3327      598134.95      1589.3921      598749.79      598268.05      597386.99      2119.2618      3075.7345      262.99232      7861.2816      8031.0427      15892.324      142616.28      41.467995      41.467995      82.93599           16000 
    252000   3798.344       601516.89      1595.9927      602358.46      601118.98      601073.24      2571.5984      1976.1099     -1021.2829      7855.101       7991.9894      15847.09       142527.54      41.459392      41.459392      82.918784          16000 
    253000   3838.0632      600699.7       1602.592       603065.52      600048.64      598984.95     -1206.1262      148.90061     -2827.6894      7937.2416      8040.5599      15977.802      142601.3       41.466543      41.466543      82.933085          16000 
    254000   3772.9125      598045.38      1609.192       599729.23      597513.52      596893.38     -33.485499     -3005.6412      392.73775      7802.5079      8075.0575      15877.565      142631.91      41.469509      41.469509      82.939019          16000 
    255000   3810.1958      598116.95      1615.791       598977.08      596212.75      599161.03     -1718.669      -165.78409      2943.7385      7879.6109      7932.19        15811.801      142604.22      41.466826      41.466826      82.933652          16000 
    256000   3817.6878      598670.8       1622.3868      600570.68      596452.34      598989.38     -1460.8038     -1241.1289     -1459.7609      7895.1045      8002.618       15897.723      142684.89      41.474643      41.474643      82.949286          16000 
    257000   3772.6115      601343.75      1628.9797      605096.21      599053.84      599881.19     -1313.7497     -807.47913     -1738.7516      7801.8853      8001.4365      15803.322      142523.83      41.459032      41.459032      82.918064          16000 
    258000   3825.4985      601515.27      1635.5756      600271.08      601616.22      602658.52     -3844.2743      1590.6992      85.793415      7911.2574      8099.1464      16010.404      142568.82      41.463395      41.463395      82.92679           16000 
    259000   3793.8543      601285.53      1642.175       600995.32      599512.84      603348.42     -430.24538      5085.2379     -1985.4952      7845.816       8113.1839      15959          142494.14      41.456153      41.456153      82.912306          16000 
    260000   3805.606       599913.12      1648.7746      599176.29      599639.35      600923.71      3171.7458     -652.32817     -1575.343       7870.1189      8007.1624      15877.281      142551.76      41.46174       41.46174       82.923481          16000 
    261000   3779.3185      596100.3       1655.3748      597330.58      592410.86      598559.47     -2340.9946     -683.43095      1265.5724      7815.7555      8019.4663      15835.222      142671.52      41.473348      41.473348      82.946697          16000 
    262000   3833.0688      603805.42      1661.9738      603836.55      603622.97      603956.73      2101.8517     -2119.3617      2149.6858      7926.9131      8112.5781      16039.491      142462.68      41.453102      41.453102      82.906204          16000 
    263000   3792.5996      603983.07      1668.564       605069.11      604598.15      602281.94     -1852.5598      4194.7842     -4349.3587      7843.2213      8114.3516      15957.573      142419.81      41.448943      41.448943      82.897887          16000 
    264000   3814.9978      597073.17      1675.1594      596216.04      596742.37      598261.09      3978.8678     -281.71584      2127.099       7889.5415      8057.2306      15946.772      142657.86      41.472025      41.472025      82.944049          16000 
    265000   3798.1256      599420.6       1681.758       598969.84      601489.53      597802.42     -2767.9159     -1503.6487     -475.0593       7854.6493      8037.6118      15892.261      142588.88      41.465339      41.465339      82.930677          16000 
    266000   3793.5186      603441.17      1688.3576      603601.99      600965.01      605756.52      4049.0165     -3430.6142     -1429.9441      7845.1218      8089.5855      15934.707      142459.15      41.45276       41.45276       82.905519          16000 
    267000   3817.0723      605041.6       1694.9588      606226.95      605586.61      603311.25      1019.6399     -174.36254      1639.5157      7893.8316      8117.6871      16011.519      142391.85      41.446232      41.446232      82.892463          16000 
    268000   3832.3944      598949.16      1701.5593      598071.97      599900.66      598874.86      764.70792      2262.5379      5488.1404      7925.5183      8008.309       15933.827      142635.71      41.469878      41.469878      82.939756          16000 
    269000   3791.235       599223.96      1708.1577      598541.54      600907.34      598223        -739.82349      1295.7932      1960.7171      7840.3992      8095.9109      15936.31       142624.3       41.468772      41.468772      82.937543          16000 
    270000   3807.1356      603574.61      1714.7577      604937.48      604473.59      601312.75      4858.6111      3459.5861     -3495.1552      7873.2822      8046.0394      15919.322      142434.75      41.450393      41.450393      82.900786          16000 
    271000   3834.3844      601656.49      1721.3559      601630.98      600851.26      602487.25     -87.462611     -968.3173       2721.4037      7929.6336      8176.9295      16106.563      142517.92      41.45846       41.45846       82.916919          16000 
    272000   3776.9         600965.6       1727.9555      600256.98      600200.58      602439.22     -1784.7537     -1337.4518     -841.92338      7810.7542      8058.3163      15869.071      142537.14      41.460323      41.460323      82.920646          16000 
    273000   3802.4587      599991.81      1734.5565      599317.03      600625.46      600032.95      1022.0036      664.20076     -246.71613      7863.6104      8094.9317      15958.542      142618.98      41.468256      41.468256      82.936512          16000 
    274000   3780.0451      602145.12      1741.159       601208.2       603071.37      602155.8       2343.9041     -410.30761     -1136.3521      7817.2583      8062.8453      15880.104      142549.98      41.461568      41.461568      82.923137          16000 
    275000   3809.7151      592810.78      1747.7605      592117.52      592981.41      593333.4      -3843.1147     -4141.5056     -2441.6214      7878.6167      8010.3838      15889.001      142854.81      41.491101      41.491101      82.982202          16000 
    276000   3781.92        595746.81      1754.3617      595597.43      597048.47      594594.54     -1121.869       3781.0888     -6232.0954      7821.1357      7929.2399      15750.376      142741.48      41.480126      41.480126      82.960252          16000 
    277000   3823.3437      603059.82      1760.9619      604835.65      602083.85      602259.96     -4858.3627     -1516.7112     -1973.6625      7906.8011      8054.8616      15961.663      142424.17      41.449367      41.449367      82.898733          16000 
    278000   3817.8332      602063.51      1767.5627      600188.16      604275.59      601726.77      976.14029      5577.4418      5395.9464      7895.4053      8162.6509      16058.056      142483.58      41.455129      41.455129      82.910258          16000 
    279000   3787.8369      598134.2       1774.1633      596796.07      601052.35      596554.18     -226.23941      3287.5885      1920.4722      7833.372       8018.6927      15852.065      142604.25      41.466829      41.466829      82.933657          16000 
    280000   3771.224       595155.93      1780.7668      596457.36      593653.95      595356.49     -35.837963      113.57441     -3601.9574      7799.0159      7976.3262      15775.342      142761.37      41.482052      41.482052      82.964105          16000 
    281000   3747.2468      603243.76      1787.367       601238.01      604790.8       603702.46     -1421.1396      1030.1942     -2801.6207      7749.4303      8105.5031      15854.933      142456.9       41.452542      41.452542      82.905084          16000 
    282000   3807.1491      603641.64      1793.9694      603554.73      602322.16      605048.02     -1028.146       119.18195      1663.0922      7873.3102      8093.2992      15966.609      142455.99      41.452454      41.452454      82.904908          16000 
    283000   3786.1836      599665.63      1800.5716      602142.52      597810.61      599043.77      305.21715     -1143.8511      250.89066      7829.9528      8001.7195      15831.672      142538.49      41.460454      41.460454      82.920908          16000 
    284000   3833.4585      596763.13      1807.1732      595128.77      599201.35      595959.27     -3018.1578      2451.4357      586.4241       7927.719       7964.0838      15891.803      142731.88      41.479196      41.479196      82.958393          16000 
    285000   3769.4172      600551.5       1813.7738      600342.29      601008.1       600304.12      5527.7418     -2083.9354      5128.1835      7795.2794      8008.963       15804.242      142526.63      41.459304      41.459304      82.918608          16000 
[...]
   3930000   3626.0413      604873.98      6723.3892      606698.88      606449.27      601473.78     -3381.9943     -4567.0921      410.17499      7498.7733      17049.499      24548.273      140194.1       41.321981      41.321981      82.104599          16000 
   3931000   3621.9033      599140.79      6730.6336      604505.75      597484.06      595432.55      709.91936     -6364.7936     -120.89584      7490.2158      17008.934      24499.15       140325.37      41.334873      41.334873      82.130216          16000 
   3932000   3602.3131      597998.44      6737.8776      596691.47      599039.09      598264.75     -1693.2728      3150.9094     -2076.6813      7449.7026      17007.433      24457.135      140431.8       41.345321      41.345321      82.150975          16000 
   3933000   3605.5302      596473.87      6745.1213      593378.99      602377.45      593665.18     -54.413754     -3584.0933      86.84931       7456.3556      16980.981      24437.337      140483.37      41.350381      41.350381      82.161029          16000 
   3934000   3629.0353      593780.21      6752.3671      596503.94      593601.12      591235.57      727.378        4953.318      -3968.1951      7504.9649      16852.381      24357.346      140696.31      41.371263      41.371263      82.202521          16000 
   3935000   3607.5179      590103.71      6759.6047      596358.63      587992.63      585959.87     -1558.47        3094.9465     -2348.0458      7460.4662      16877.033      24337.499      140746.98      41.376229      41.376229      82.212388          16000 
   3936000   3601.5086      599475.46      6766.842       601389.73      600321.07      596715.59     -433.02987     -494.40175     -2607.8172      7448.0388      17045.051      24493.09       140328.74      41.335204      41.335204      82.130874          16000 
   3937000   3638.8234      606224.99      6774.086       608339.77      610591.35      599743.84     -25.600137      4229.2594      971.43971      7525.2071      17021.206      24546.413      140183.54      41.320943      41.320943      82.102536          16000 
   3938000   3635.0067      608768.86      6781.3299      608622.38      611799.79      605884.42      1247.6429      1133.4069      3406.6764      7517.314       17102.716      24620.03       139985.31      41.301456      41.301456      82.063818          16000 
   3939000   3615.1649      600677.22      6788.5731      600638.98      602576.19      598816.5       247.67371     -6564.6239     -5116.9744      7476.2805      16992.887      24469.167      140382.68      41.3405        41.3405        82.141396          16000 
   3940000   3595.905       601315.47      6795.8155      602867.31      604571.92      596507.2       2496.4589      5046.7495      3571.5295      7436.4504      17101.668      24538.118      140198.86      41.322448      41.322448      82.105528          16000 
   3941000   3636.9099      606776.46      6803.0621      609320.67      608247.5       602761.2      -1118.892      -1299.6022     -3457.9785      7521.2499      17051.191      24572.441      140107.48      41.313469      41.313469      82.087686          16000 
   3942000   3633.1554      599510.16      6810.3038      601220.24      601283.26      596026.97      3644.6004      1806.0864      2310.3064      7513.4854      16957.774      24471.259      140375.04      41.33975       41.33975       82.139906          16000 
   3943000   3577.9675      597434.04      6817.5472      595846.24      601267.63      595188.25      825.70096      3641.3606      3618.6751      7399.355       17076.123      24475.478      140363.08      41.338576      41.338576      82.137572          16000 
   3944000   3616.594       594080.93      6824.7892      594078.72      600214.03      587950.04      2181.7129     -4028.7582      2511.2006      7479.236       16958.474      24437.71       140462.13      41.348297      41.348297      82.156889          16000 
   3945000   3614.9225      596029.77      6832.0271      597684.84      599794.6       590609.88     -1820.268       1386.1658      7785.3465      7475.7792      17007.157      24482.936      140340.99      41.336407      41.336407      82.133263          16000 
   3946000   3646.1266      607427         6839.2651      607819.52      609201.97      605259.51      994.08289     -1905.0756     -1956.608       7540.3104      17070.617      24610.928      139997.79      41.302684      41.302684      82.066258          16000 
   3947000   3627.291       599483.68      6846.5041      601110.67      601421.5       595918.86      176.3369      -575.72209      4625.4917      7501.3578      16994.432      24495.79       140305.76      41.332949      41.332949      82.126392          16000 
   3948000   3588.6419      602806.37      6853.737       604398.14      604177.69      599843.27      2668.4803      6844.2899     -2278.3581      7421.4301      17098.03       24519.46       140236.98      41.326193      41.326193      82.112969          16000 
   3949000   3625.2747      598759.32      6860.9721      600828.26      600895.9       594553.79     -3884.7206     -2879.6814      2254.6049      7497.1879      16977.209      24474.397      140357.44      41.338023      41.338023      82.136474          16000 
   3950000   3587.9721      595017.11      6868.2104      599914.67      593467.88      591668.77     -4924.4175     -2886.3953      686.48519      7420.045       17026.313      24446.358      140431.69      41.34531       41.34531       82.150953          16000 
   3951000   3620.2852      603201.49      6875.4473      603056.32      606357.08      600191.06      827.77485     -333.53926     -3187.6325      7486.8694      17080.048      24566.918      140108.43      41.313561      41.313561      82.08787           16000 
   3952000   3637.1042      603410.05      6882.684       605179         605155.35      599895.79     -674.28204     -6860.7441      5039.7381      7521.6516      17031.704      24553.355      140144.18      41.317075      41.317075      82.094851          16000 
   3953000   3600.076       599695.22      6889.9263      601053.66      603540.78      594491.21     -1238.745       4048.2066     -1300.3848      7445.0762      17088.798      24533.874      140195.12      41.322081      41.322081      82.104798          16000 
   3954000   3604.981       599113.91      6897.1629      601152.08      599506.17      596683.5      -1577.9984      87.627765      1855.6941      7455.2199      17040.29       24495.51       140297.17      41.332104      41.332104      82.124714          16000 
   3955000   3588.971       599678.83      6904.4018      599464.79      602939.55      596632.14      480.41319      1680.1227      971.14481      7422.1107      17072.68       24494.791      140296.18      41.332007      41.332007      82.124521          16000 
   3956000   3601.2481      600524.73      6911.6367      600509.28      599829.96      601234.94      831.09691     -2377.0692     -2548.8217      7447.5002      17056.457      24503.957      140270.86      41.32952       41.32952       82.11958           16000 
   3957000   3607.2276      600047.53      6918.878       602741.5       604030.94      593370.16      963.47724     -2037.6969      4026.5311      7459.8658      17064.339      24524.205      140216.98      41.324228      41.324228      82.109065          16000 
   3958000   3640.0855      601314.41      6926.1158      604830.84      605596.06      593516.32      1790.9178     -1114.275      -3125.5143      7527.8171      16958.95       24486.767      140315.26      41.333881      41.333881      82.128244          16000 
   3959000   3595.7178      606937.33      6933.3596      607212.57      610100.18      603499.25      2888.7467      2645.4906      6326.3323      7436.0633      17163.346      24599.41       140011.73      41.304055      41.304055      82.068981          16000 
   3960000   3600.9337      605574.81      6940.6027      608985.4       610859.89      596879.14     -2784.5687      277.67077     -2340.6241      7446.8499      17120.624      24567.474      140096.48      41.312387      41.312387      82.085538          16000 
   3961000   3641.6179      607517.56      6947.8522      610592.77      607998.2       603961.71      2817.8037     -1430.8113     -3874.0852      7530.9862      17058.918      24589.904      140030.61      41.305911      41.305911      82.07267           16000 
   3962000   3611.6427      605342.01      6955.0994      606725.6       609393.4       599907.03     -1186.3556     -209.63773      578.42244      7468.9964      17092.455      24561.451      140103.68      41.313095      41.313095      82.086943          16000 
   3963000   3594.1554      603953.78      6962.3492      605302.96      604237.14      602321.25     -2496.7421     -3478.4887      146.61577      7432.8323      17130.612      24563.445      140093.45      41.312089      41.312089      82.084946          16000 
   3964000   3605.675       601928.12      6969.5992      602822.59      601516.7       601445.07      2508.2512     -183.38169      270.5683       7456.6552      17025.126      24481.781      140310.72      41.333435      41.333435      82.127358          16000 
   3965000   3606.6438      597704.24      6976.8406      602607.03      597737.91      592767.77      894.61132     -1424.3142     -4144.7659      7458.6586      16987.144      24445.803      140405.79      41.342769      41.342769      82.145904          16000 
   3966000   3604.4709      601677.41      6984.0836      607982.98      599688.69      597360.57      3833.0689     -1660.0398     -355.95265      7454.1649      17059.953      24514.118      140222.18      41.324739      41.324739      82.11008           16000 
   3967000   3619.1557      607083.19      6991.3325      605264.15      609915.9       606069.52     -3297.1715      2115.5205      1640.5525      7484.5337      17051.259      24535.792      140164.38      41.31906       41.31906       82.098796          16000 
   3968000   3591.6566      601008.6       6998.5805      604184.4       602281.54      596559.86     -1556.406      -8.520225       1539.2048      7427.6647      17056.603      24484.268      140300.55      41.332437      41.332437      82.125374          16000 
   3969000   3600.8324      600320.88      7005.8274      597685.8       604964.15      598312.7       534.24758     -452.89116      275.54227      7446.6404      17040.641      24487.281      140292.18      41.331614      41.331614      82.123741          16000 
   3970000   3636.3129      602400.44      7013.0772      603774.83      607678.65      595747.83      991.17272     -150.83609     -48.115325      7520.0152      17052.657      24572.672      140061.38      41.308937      41.308937      82.078682          16000 
   3971000   3600.1603      607333.11      7020.3305      609149.51      604837.91      608011.91      3881.3456     -4283.3252     -9210.818       7445.2504      17161.251      24606.501      139971         41.300049      41.300049      82.061022          16000 
   3972000   3612.1651      599859.36      7027.5797      599413.9       600598.57      599565.61      5425.1825      3404.7468     -2290.5903      7470.0769      17046.936      24517.013      140209.54      41.323497      41.323497      82.107612          16000 
   3973000   3628.0706      600089.58      7034.8282      602283.86      602678.92      595305.96     -1070.636      -1587.3114     -1386.6519      7502.9699      16989.44       24492.41       140272.44      41.329676      41.329676      82.119889          16000 
   3974000   3634.3674      599394.39      7042.0695      598407.1       601370.17      598405.88      3588.8629     -352.25191      438.34567      7515.9919      16946.512      24462.504      140349.1       41.337204      41.337204      82.134847          16000 
   3975000   3604.6179      601730.33      7049.312       602366.63      603360.05      599464.31     -2062.8535      1332.4327     -700.78285      7454.469       17060.305      24514.774      140208.67      41.323411      41.323411      82.107442          16000 
   3976000   3608.6138      602064.83      7056.5584      605696.46      602497.69      598000.36     -1465.6944     -281.99603      1130.3209      7462.7326      17076.567      24539.299      140142.47      41.316907      41.316907      82.094517          16000 
   3977000   3618.5709      598627.58      7063.8017      600819.17      599479.58      595584         3520.0844      537.72662     -4043.0255      7483.3243      16958.849      24442.174      140400.37      41.342236      41.342236      82.144846          16000 
   3978000   3623.298       597760.63      7071.0464      597809.34      601613.7       593858.84      1241.9097     -1961.7179      110.39361      7493.1         16962.902      24456.002      140359.63      41.338238      41.338238      82.136901          16000 
   3979000   3594.2543      599609.04      7078.2856      598876.2       602034.35      597916.56      1903.5144      1409.7606      16.807586      7433.0368      16995.935      24428.972      140431.58      41.3453        41.3453        82.150933          16000 
   3980000   3596.0056      593028.72      7085.5299      592225.3       593348.24      593512.61      638.00526      1373.1602      1973.3498      7436.6585      16944.046      24380.704      140560.07      41.357905      41.357905      82.17598           16000 
   3981000   3610.4075      595743.79      7092.7714      597141.54      598499.11      591590.74     -1042.3353      3195.633       493.71815      7466.4421      16925.128      24391.57       140530.19      41.354975      41.354975      82.170157          16000 
   3982000   3603.3971      594973.64      7100.0203      597710.09      594881.06      592329.77      373.57872     -348.19895      2070.0762      7451.9443      16947.451      24399.396      140508.52      41.352849      41.352849      82.165932          16000 
   3983000   3607.2223      600898.14      7107.2648      603253.37      603423.18      596017.87     -246.84578     -1420.8969      1584.2094      7459.8549      17018.995      24478.85       140293.36      41.33173       41.33173       82.12397           16000 
   3984000   3605.4985      602681.33      7114.5045      601800.49      602182.85      604060.65      467.46835      503.92776     -2785.7127      7456.29        17088.312      24544.602      140114.74      41.314181      41.314181      82.089102          16000 
   3985000   3580.8166      607680.06      7121.7404      612712.56      606430.07      603897.55     -960.45755      5532.5802     -2239.7145      7405.247       17188.951      24594.198      139980.49      41.300982      41.300982      82.062876          16000 
   3986000   3617.1825      598661.09      7128.9797      601772.69      602013.57      592197         2495.206      -1320.569       4985.9357      7480.453       17015.236      24495.689      140240.8       41.326568      41.326568      82.113714          16000 
   3987000   3570.0146      601581.68      7136.2197      605701.56      601218.04      597825.44     -2503.7032     -1467.5943     -19.380362      7382.9082      17139.127      24522.035      140170.05      41.319617      41.319617      82.099903          16000 
   3988000   3583.0851      601204.46      7143.4681      603809.7       602253.22      597550.46      2442.2748     -271.28119      508.28687      7409.9385      17063.237      24473.175      140297.89      41.332175      41.332175      82.124855          16000 
   3989000   3606.8981      601615.84      7150.7109      600099.89      604759.34      599988.3      -1755.5862      1780.4216     -1718.0095      7459.1846      17034.029      24493.213      140243.48      41.326832      41.326832      82.114238          16000 
   3990000   3585.7178      602349.39      7157.9518      603573.39      600660.97      602813.8       719.47516     -4177.2681     -2074.7865      7415.383       17078.736      24494.119      140240.7       41.326559      41.326559      82.113696          16000 
   3991000   3610.1327      596691.87      7165.1948      599946.51      595228.7       594900.4       971.25723     -3383.9789     -142.68809      7465.8738      16967.79       24433.664      140402.41      41.342437      41.342437      82.145244          16000 
   3992000   3611.7677      598161.23      7172.4313      602177.87      596760.57      595545.26      1925.5815     -8499.6159     -4966.6222      7469.255       16963.203      24432.458      140403.43      41.342537      41.342537      82.145444          16000 
   3993000   3623.3229      603438.86      7179.6791      604156.47      601283.5       604876.61      667.0994       1676.1757     -3962.1507      7493.1516      17015.298      24508.45       140198.42      41.322405      41.322405      82.105442          16000 
   3994000   3625.198       604900.8       7186.9212      607093.04      606462.01      601147.35     -1224.1741     -7884.2715      4015.7075      7497.0294      17021.477      24518.507      140170.71      41.319682      41.319682      82.100032          16000 
   3995000   3631.4868      605247.54      7194.1629      607121.35      606879.68      601741.58     -204.70687      3176.7167     -4621.9117      7510.0347      17034.804      24544.839      140097.48      41.312485      41.312485      82.085732          16000 
   3996000   3643.5995      596548.02      7201.4104      597316.42      599391.15      592936.5      -1659.6662      1314.4973      1531.6549      7535.0842      16859.501      24394.585      140497.44      41.351762      41.351762      82.163773          16000 
   3997000   3664.9787      604955.45      7208.6598      606427.37      609584.51      598854.47      389.03393      961.87401      840.3069       7579.2971      16926.555      24505.852      140199.46      41.322507      41.322507      82.105645          16000 
   3998000   3605.2214      596670.46      7215.9042      600578.33      595968.68      593464.37     -3142.7887     -2264.446       4489.3903      7455.7171      16916.313      24372.03       140556.1       41.357516      41.357516      82.175206          16000 
   3999000   3588.1314      593579.69      7223.1479      594490.77      596861.07      589387.22      317.56894      4520.247      -1179.187       7420.3744      16935.103      24355.478      140599.23      41.361746      41.361746      82.183611          16000 
   4000000   3608.2497      599509.41      7230.3964      601009.61      600299.44      597219.17      1578.5986      3403.2674     -896.81911      7461.9796      16975.305      24437.285      140375.07      41.339753      41.339753      82.139911          16000 
Loop time of 7230.4 on 8 procs for 1000000 steps with 16000 atoms

Performance: 5.975 ns/day, 4.017 hours/ns, 138.305 timesteps/s
58.1% CPU use with 1 MPI tasks x 8 OpenMP threads

MPI task timing breakdown:
Section |  min time  |  avg time  |  max time  |%varavg| %total
---------------------------------------------------------------
Pair    | 6948.6     | 6948.6     | 6948.6     |   0.0 | 96.10
Neigh   | 12.504     | 12.504     | 12.504     |   0.0 |  0.17
Comm    | 38.583     | 38.583     | 38.583     |   0.0 |  0.53
Output  | 1.4485     | 1.4485     | 1.4485     |   0.0 |  0.02
Modify  | 203.93     | 203.93     | 203.93     |   0.0 |  2.82
Other   |            | 25.28      |            |       |  0.35

Nlocal:          16000 ave       16000 max       16000 min
Histogram: 1 0 0 0 0 0 0 0 0 0
Nghost:          14119 ave       14119 max       14119 min
Histogram: 1 0 0 0 0 0 0 0 0 0
Neighs:              0 ave           0 max           0 min
Histogram: 1 0 0 0 0 0 0 0 0 0
FullNghs:  1.64804e+06 ave 1.64804e+06 max 1.64804e+06 min
Histogram: 1 0 0 0 0 0 0 0 0 0

Total # of neighbors = 1648036
Ave neighs/atom = 103.00225
Neighbor list builds = 31787
Dangerous builds = 0
Total wall time: 7:38:11
