
atom_style atomic
units metal
boundary p p p
#atom_modify sort 0 0.0
newton on

read_data data.lammps
Reading data file ...
  triclinic box = (0 0 0) to (4.3790145 4.3790145 4.3790145) with tilt (-0 0 0)
  1 by 1 by 1 MPI processor grid
  reading atoms ...
  8 atoms
  read_data CPU = 0.004 seconds
replicate 10 10 20
Replicating atoms ...
  triclinic box = (0 0 0) to (43.790145 43.790145 87.58029) with tilt (-0 0 0)
  1 by 1 by 1 MPI processor grid
  16000 atoms
  replicate CPU = 0.021 seconds

### interactions

pair_style flare
pair_coeff * * lmp.flare
Reading potential file lmp.flare with DATE: Thu

# compute unc all flare/std/atom L_inv_lmp.flare sparse_desc_lmp.flare
# compute MaxUnc all reduce max c_unc

mass 1 12.011000
mass 2 28.085000

thermo_style custom step temp press cpu pxx pyy pzz pxy pxz pyz ke pe etotal vol lx ly lz atoms    #c_MaxUnc
thermo 1000
timestep 0.0005
restart 100000 restart_*.dat

#################### Equilibrate at P and T_es ##############################
velocity all create $T 41928459 rot yes dist gaussian
velocity all create 3600 41928459 rot yes dist gaussian
fix mom all momentum 1000 linear 1 1 1 angular

fix 1 all npt temp $T $T $(100.0*dt) iso $P $P $(1000.0*dt)
fix 1 all npt temp 3600 $T $(100.0*dt) iso $P $P $(1000.0*dt)
fix 1 all npt temp 3600 3600 $(100.0*dt) iso $P $P $(1000.0*dt)
fix 1 all npt temp 3600 3600 0.050000000000000002776 iso $P $P $(1000.0*dt)
fix 1 all npt temp 3600 3600 0.050000000000000002776 iso 300000 $P $(1000.0*dt)
fix 1 all npt temp 3600 3600 0.050000000000000002776 iso 300000 300000 $(1000.0*dt)
fix 1 all npt temp 3600 3600 0.050000000000000002776 iso 300000 300000 0.5
dump 1 all custom 1000 1equil.bin id type x y z vx vy vz
run   10000 # report performance
Neighbor list info ...
  update every 1 steps, delay 10 steps, check yes
  max neighbors/atom: 2000, page size: 100000
  master list distance cutoff = 6
  ghost atom cutoff = 6
  binsize = 6, bins = 8 8 15
  1 neighbor lists, perpetual/occasional/extra = 1 0 0
  (1) pair flare/kk, perpetual
      attributes: full, newton on, kokkos_device
      pair build: full/bin/kk/device
      stencil: full/bin/3d
      bin: kk/device
Per MPI rank memory allocation (min/avg/max) = 15.9 | 15.9 | 15.9 Mbytes
   Step          Temp          Press           CPU            Pxx            Pyy            Pzz            Pxy            Pxz            Pyz           KinEng         PotEng         TotEng         Volume           Lx             Ly             Lz          Atoms   
         0   3600           66059.554      0              65701.03       66222.995      66254.636     -499.5503       224.99675     -564.80851      7444.919      -4109.4047      3335.5143      167941.93      43.790145      43.790145      87.58029           16000 
      1000   3568.6465      301176.67      6.4314488      302047.65      300010.15      301472.2      -186.39638      840.98717     -348.51243      7380.079       4972.8737      12352.953      156573.06      42.778841      42.778841      85.557682          16000 
      2000   3544.8285      297500.58      12.840077      295926.73      298475.79      298099.22      4129.0833     -1426.4501     -1680.7733      7330.8225      5039.1599      12369.982      156727.66      42.792916      42.792916      85.585833          16000 
      3000   3561.6598      301696.58      19.24877       300550.55      302232.86      302306.32      1932.5389      1899.178       476.87629      7365.6303      4798.4587      12164.089      156462.33      42.768754      42.768754      85.537508          16000 
      4000   3636.1348      299045.39      25.656499      299265.84      297810.18      300060.17     -1580.5617      633.87034     -1230.8411      7519.6469      4896.7596      12416.407      156728.45      42.792988      42.792988      85.585976          16000 
      5000   3611.4564      300380.98      32.063048      300255.39      299008.23      301879.32     -2941.7493     -1039.7645     -545.44497      7468.6112      4743.1917      12211.803      156549.72      42.776715      42.776715      85.553431          16000 
      6000   3607.4611      300564.33      38.471576      300805.04      300536.89      300351.05      47.704288     -866.68872     -473.48435      7460.3488      4911.9244      12372.273      156641.83      42.785103      42.785103      85.570207          16000 
      7000   3592.8621      299691.47      44.87808       299369.91      298623.23      301081.27      3002.0188      515.39504      228.09377      7430.1576      4814.2928      12244.45       156599.56      42.781254      42.781254      85.562508          16000 
      8000   3585.3073      297235.61      51.281686      298417.5       296635.84      296653.49     -173.59302     -706.19198     -475.77072      7414.5341      4818.148       12232.682      156685.15      42.789047      42.789047      85.578093          16000 
      9000   3601.758       296717.16      57.686046      294898.61      296821.35      298431.51      1429.041       1549.5792     -1370.5555      7448.5546      4901.4579      12350.012      156781.43      42.79781       42.79781       85.595619          16000 
     10000   3568.5066      294875.03      64.092647      296389.55      293646.32      294589.23      2695.6974      2002.9699     -1159.8488      7379.7897      4741.4924      12121.282      156805.83      42.800029      42.800029      85.600059          16000 
Loop time of 64.0927 on 8 procs for 10000 steps with 16000 atoms

Performance: 6.740 ns/day, 3.561 hours/ns, 156.024 timesteps/s
61.7% CPU use with 1 MPI tasks x 8 OpenMP threads

MPI task timing breakdown:
Section |  min time  |  avg time  |  max time  |%varavg| %total
---------------------------------------------------------------
Pair    | 61.036     | 61.036     | 61.036     |   0.0 | 95.23
Neigh   | 0.093454   | 0.093454   | 0.093454   |   0.0 |  0.15
Comm    | 0.37147    | 0.37147    | 0.37147    |   0.0 |  0.58
Output  | 0.012121   | 0.012121   | 0.012121   |   0.0 |  0.02
Modify  | 2.3212     | 2.3212     | 2.3212     |   0.0 |  3.62
Other   |            | 0.2579     |            |       |  0.40

Nlocal:          16000 ave       16000 max       16000 min
Histogram: 1 0 0 0 0 0 0 0 0 0
Nghost:          13615 ave       13615 max       13615 min
Histogram: 1 0 0 0 0 0 0 0 0 0
Neighs:              0 ave           0 max           0 min
Histogram: 1 0 0 0 0 0 0 0 0 0
FullNghs:  1.47053e+06 ave 1.47053e+06 max 1.47053e+06 min
Histogram: 1 0 0 0 0 0 0 0 0 0

Total # of neighbors = 1470528
Ave neighs/atom = 91.908
Neighbor list builds = 293
Dangerous builds = 0
run  990000
Per MPI rank memory allocation (min/avg/max) = 16.08 | 16.08 | 16.08 Mbytes
   Step          Temp          Press           CPU            Pxx            Pyy            Pzz            Pxy            Pxz            Pyz           KinEng         PotEng         TotEng         Volume           Lx             Ly             Lz          Atoms   
     10000   3568.5066      294875.03      0              296389.55      293646.32      294589.23      2695.6974      2002.9699     -1159.8488      7379.7897      4741.4924      12121.282      156805.83      42.800029      42.800029      85.600059          16000 
     11000   3620.1614      293751.71      6.4053454      293756.9       292355.52      295142.7       117.28866     -2554.6663      320.37577      7486.6135      4759.5818      12246.195      156952.1       42.813334      42.813334      85.626667          16000 
     12000   3603.4679      296960.7       12.81135       297405.37      297620.7       295856.03     -638.51664     -402.44419     -781.4254       7452.0908      4786.097       12238.188      156676.95      42.7883        42.7883        85.5766            16000 
     13000   3615.7643      299205.38      19.21846       299439.45      298671.76      299504.93     -150.95754     -687.62891      2582.2377      7477.5201      4854.0308      12331.551      156589.01      42.780293      42.780293      85.560587          16000 
     14000   3592.2897      300371.98      25.624938      300243.58      301708.51      299163.85     -998.19456      914.41568      781.96521      7428.9738      4848.5517      12277.526      156541.88      42.776001      42.776001      85.552003          16000 
     15000   3594.9083      298408.89      32.030467      299107.57      298416.31      297702.8      -372.38007      1500.9178      1067.3969      7434.3893      4808.5839      12242.973      156685.87      42.789112      42.789112      85.578224          16000 
     16000   3635.6037      299526.1       38.43587       299813.11      299602.31      299162.9       2.5296748     -1825.7581     -506.27271      7518.5486      4844.305       12362.854      156570.73      42.778629      42.778629      85.557257          16000 
     17000   3613.4964      307124         44.841001      306390.98      307742.29      307238.74      1328.0626     -402.73747     -103.33784      7472.8299      4803.0643      12275.894      156106.67      42.736323      42.736323      85.472646          16000 
     18000   3616.5558      308221.8       51.24829       308020.96      308729.45      307915        -38.092752      1754.9811      1480.1162      7479.157       4970.8919      12450.049      156127.08      42.738186      42.738186      85.476371          16000 
     19000   3539.9064      302665.07      57.651116      302020.69      303019.92      302954.58      1736.1267     -2640.686       1833.5701      7320.6434      4967.5428      12288.186      156356.83      42.759139      42.759139      85.518278          16000 
     20000   3585.8378      301421.42      64.054344      301165.85      301039.08      302059.34      1043.6855      1548.099       2433.9796      7415.6312      4808.7833      12224.415      156449.15      42.767553      42.767553      85.535106          16000 
     21000   3603.2115      298328.88      70.459472      298859.29      299512.58      296614.78      1243.3069      35.232777     -2955.9441      7451.5605      4848.637       12300.198      156656.65      42.786452      42.786452      85.572905          16000 
     22000   3586.302       300275.32      76.867013      300130.54      300376.17      300319.25      607.67084      1365.0486      790.81945      7416.591       4753.3101      12169.901      156478.35      42.770214      42.770214      85.540428          16000 
     23000   3629.9991      299695.69      83.27218       298880.52      298500.02      301706.53     -3049.9308     -2943.99       -2480.0318      7506.9581      4870.4358      12377.394      156518.22      42.773846      42.773846      85.547691          16000 
     24000   3613.886       302180.3       89.677886      303221.99      301551.41      301767.49     -1672.811      -263.87949     -1504.0603      7473.6357      4861.7499      12335.386      156378.7       42.761132      42.761132      85.522265          16000 
     25000   3545.0889      305527         96.08326       304973.52      306287.11      305320.37     -354.20435     -1030.3572     -2145.9608      7331.3611      5033.8397      12365.201      156187         42.743653      42.743653      85.487305          16000 
     26000   3611.2506      304712.59      102.48907      302918.58      305569.37      305649.83      585.13611     -62.795028      1066.349       7468.1857      4913.6827      12381.868      156267.02      42.750951      42.750951      85.501902          16000 
     27000   3618.3697      302551.87      108.8924       300991.81      303665.13      302998.69     -1587.9738     -1353.4945     -3196.1895      7482.9081      4865.5297      12348.438      156401.32      42.763194      42.763194      85.526388          16000 
     28000   3575.9835      300615.9       115.29666      299724.83      301191.08      300931.8       3649.8414     -1802.0388     -1544.2612      7395.2522      4892.9173      12288.169      156477         42.770091      42.770091      85.540182          16000 
     29000   3572.4696      301024.17      121.70252      301561.29      301047.88      300463.34      3675.786       1391.8037     -2207.2903      7387.9853      4871.1793      12259.165      156436.34      42.766386      42.766386      85.532772          16000 
     30000   3638.6433      300520.6       128.10822      300876.62      301789.09      298896.09      1871.1586     -276.07276     -2094.8664      7524.8347      4803.7388      12328.573      156512.23      42.773301      42.773301      85.546602          16000 
     31000   3573.8735      301547.65      134.51355      300879.75      302634.15      301129.05     -2128.0097     -468.08506      954.42136      7390.8885      4826.9416      12217.83       156477.28      42.770116      42.770116      85.540233          16000 
     32000   3605.6407      299304.87      140.91835      299232.02      299178.81      299503.8      -2089.3633      1792.4748     -1408.3616      7456.5843      4831.0175      12287.602      156686.47      42.789167      42.789167      85.578334          16000 
     33000   3597.5419      295300.85      147.32381      295245.18      294313.43      296343.95     -1470.5767     -1910.5394     -396.17031      7439.8356      4760.9137      12200.749      156807.93      42.800221      42.800221      85.600442          16000 
     34000   3602.4132      292267.02      153.7294       293368.33      291734.92      291697.8      -461.19827     -509.62559     -418.53823      7449.9096      4745.9186      12195.828      156980.47      42.815913      42.815913      85.631826          16000 
     35000   3547.0814      295068.52      160.1345       295320.2       295042.86      294842.5      -371.63291     -1375.6979     -1980.0922      7335.4817      4822.3492      12157.831      156753.8       42.795295      42.795295      85.59059           16000 
     36000   3641.0443      298696.95      166.53518      299000.56      299010.97      298079.31      95.348338      2141.8931     -2622.2317      7529.8         4812.2951      12342.095      156688.5       42.789352      42.789352      85.578703          16000 
     37000   3578.5705      302410.29      172.93736      302175.03      302445.35      302610.47     -2954.0161     -279.31661      961.12289      7400.6021      4805.7406      12206.343      156420.98      42.764986      42.764986      85.529973          16000 
     38000   3629.4623      298752.38      179.34317      298945.75      297517.8       299793.57     -1635.3488      264.79733     -882.4955       7505.8481      4807.0239      12312.872      156603.94      42.781653      42.781653      85.563307          16000 
     39000   3590.3765      299852.92      185.74773      300669.91      299971.96      298916.9       535.04956     -1334.8848     -2786.3901      7425.0173      4814.8989      12239.916      156560.15      42.777665      42.777665      85.55533           16000 
     40000   3604.2653      297534.73      192.15298      297262.46      298443.57      296898.17     -1941.0384     -309.26577      52.616329      7453.7398      4838.8102      12292.55       156661.51      42.786895      42.786895      85.57379           16000 
     41000   3583.1175      298706.72      198.55903      300101.84      299864.2       296154.14      1249.2165     -1806.3671     -140.85427      7410.0054      4805.8015      12215.807      156583.91      42.779829      42.779829      85.559659          16000 
     42000   3560.8071      296307.81      204.96488      298441.74      294216.14      296265.56     -1059.5905     -2288.9342     -1889.8899      7363.8668      4860.0418      12223.909      156754.54      42.795363      42.795363      85.590725          16000 
     43000   3575.1691      300197.37      211.37113      300626.82      298186.73      301778.57      511.01979     -319.9112       880.80984      7393.5679      4850.8138      12244.382      156473.53      42.769775      42.769775      85.539549          16000 
     44000   3630.8978      302395.16      217.77682      301199.95      302263.36      303722.18      1052.7538     -855.36557     -589.82264      7508.8168      4898.4961      12407.313      156576.56      42.77916       42.77916       85.55832           16000 
     45000   3587.1018      300350.09      224.18178      302123.03      300343.27      298583.96      318.16663     -836.08289      807.73866      7418.2452      4944.5408      12362.786      156557.63      42.777436      42.777436      85.554872          16000 
     46000   3612.2455      298709.07      230.58664      297745.82      298549.78      299831.62     -603.01907      1120.9665     -503.88962      7470.2431      4711.4576      12181.701      156555.86      42.777274      42.777274      85.554548          16000 
     47000   3616.2482      298363.77      236.99399      297960.88      298194.75      298935.68     -259.71467     -1252.3744      1247.8162      7478.5209      4808.5812      12287.102      156648.13      42.785677      42.785677      85.571354          16000 
     48000   3600.0813      298551.53      243.39963      299172.43      297793.8       298688.36      238.22955      1940.5         595.14299      7445.0872      4857.9631      12303.05       156604.04      42.781662      42.781662      85.563325          16000 
     49000   3580.9953      298667.65      249.80787      297668.74      299329.76      299004.43      1170.3074      428.03064     -427.91283      7405.6166      4809.9151      12215.532      156496.46      42.771864      42.771864      85.543728          16000 
     50000   3629.8439      296283.33      256.21298      295415.32      296352.35      297082.32      1577.1618      2966.6229      1125.4167      7506.6373      4775.115       12281.752      156751.27      42.795065      42.795065      85.59013           16000 
     51000   3558.573       290612.1       262.62083      291046.15      290524.83      290265.31     -2434.3968      77.573725      2630.8061      7359.2467      4814.0922      12173.339      157069.51      42.824006      42.824006      85.648013          16000 
     52000   3603.4749      297075.52      269.01147      297056.72      297147.86      297021.99     -1016.1999     -694.96148      307.41764      7452.1053      4810.0196      12262.125      156759.37      42.795803      42.795803      85.591605          16000 
     53000   3618.2573      298768.36      275.34214      298513.48      298542.07      299249.53     -667.83653     -2214.7685     -51.588897      7482.6758      4952.8626      12435.538      156738.97      42.793945      42.793945      85.58789           16000 
     54000   3584.381       301341.06      281.6719       300743.7       301573.45      301706.05      1232.0671     -1608.3603      1610.1633      7412.6184      4860.9378      12273.556      156476.17      42.770015      42.770015      85.540029          16000 
     55000   3589.6091      302144.67      288.00308      300017.25      302336.07      304080.69     -424.84143      1143.3668      293.44522      7423.4303      4909.5642      12332.994      156433.46      42.766124      42.766124      85.532247          16000 
     56000   3619.5018      304320.79      294.32938      303550.82      304607.37      304804.18      3689.5249      1670.2033     -111.11551      7485.2493      4851.2651      12336.514      156338.16      42.757437      42.757437      85.514874          16000 
     57000   3618.8906      302681.39      300.65612      300062.69      305094.84      302886.63     -2108.2599     -172.53055      571.12544      7483.9855      4949.3344      12433.32       156486.42      42.770949      42.770949      85.541898          16000 
     58000   3619.6259      302878.19      306.98427      302868.08      302044.77      303721.72     -1394.0464      583.46091      1420.075       7485.5061      4869.9464      12355.452      156407.49      42.763757      42.763757      85.527514          16000 
     59000   3571.4061      304751.84      313.31197      304908.2       305370.35      303976.99      1788.8184      3278.0185      1269.1113      7385.786       4805.0965      12190.882      156213.43      42.746063      42.746063      85.492126          16000 
     60000   3614.1316      302417.76      319.64337      303166.55      302752.26      301334.46      462.0407       853.52977     -3136.9246      7474.1435      4866.6773      12340.821      156366.15      42.759989      42.759989      85.519978          16000 
     61000   3589.7172      299172.93      325.97029      300029.57      299307.6       298181.62      843.45107      1146.1423     -1874.0793      7423.6539      4869.6932      12293.347      156568.28      42.778406      42.778406      85.556812          16000 
     62000   3576.2238      299997.49      332.29964      301289.58      300058.5       298644.38      110.36953      1878.4998     -1169.975       7395.749       4894.5639      12290.313      156629.09      42.783943      42.783943      85.567886          16000 
     63000   3559.4506      297494.89      338.62782      297981.77      297459.7       297043.2       1732.6321     -1812.485       753.4268       7361.0615      4826.2774      12187.339      156608.15      42.782036      42.782036      85.564072          16000 
     64000   3622.4215      297338.22      344.95548      298559.81      295524.29      297930.57      323.11583     -1072.0708      1118.0644      7491.2875      4778.2686      12269.556      156597.54      42.781071      42.781071      85.562141          16000 
     65000   3629.8514      296772.02      351.28348      295488.97      298580.64      296246.45     -193.21277     -382.56372      68.547474      7506.6527      4909.4052      12416.058      156792.63      42.798829      42.798829      85.597657          16000 
     66000   3583.2086      297272.92      357.61291      297099.47      298756.39      295962.91     -1599.5319      6.8008958     -1855.1282      7410.1938      4836.2965      12246.49       156790.86      42.798668      42.798668      85.597335          16000 
     67000   3629.6166      293554.92      363.9415       294262.17      295623.43      290779.17     -1113.8325      459.54052      186.66088      7506.1671      4762.1212      12268.288      156914.18      42.809885      42.809885      85.61977           16000 
     68000   3616.2167      298742.89      370.27133      298209.94      298906.24      299112.5       2828.397      -301.00388      2093.1033      7478.4556      4805.7261      12284.182      156652.04      42.786033      42.786033      85.572066          16000 
     69000   3538.7819      300647.97      376.60034      301334.41      301476.76      299132.76      3273.2642      3033.1191     -887.07836      7318.3181      4766.7883      12085.106      156440.06      42.766725      42.766725      85.53345           16000 
     70000   3613.451       301566.94      382.92773      301483.89      300803.99      302412.93      38.79997       2712.522      -358.59652      7472.7362      4845.7958      12318.532      156478.87      42.770261      42.770261      85.540522          16000 
     71000   3637.1638      304281.99      389.25545      304207.63      304512.36      304125.98     -2439.7361      168.2504      -2912.9082      7521.7751      4909.3022      12431.077      156367.42      42.760104      42.760104      85.520209          16000 
     72000   3641.0709      305811.36      395.58389      307564.17      306223.78      303646.14      3682.8821      2062.829       1446.842       7529.855       4803.8279      12333.683      156215.84      42.746283      42.746283      85.492566          16000 
     73000   3643.6281      301933.48      401.91282      301464.36      301870.32      302465.77     -459.77658      36.41116      -578.80431      7535.1433      4935.0004      12470.144      156489.11      42.771194      42.771194      85.542388          16000 
     74000   3580.9697      300292.2       408.24335      300100.22      300804.31      299972.08     -1064.7208     -107.35823     -2434.9257      7405.5638      4915.1608      12320.725      156556.75      42.777356      42.777356      85.554712          16000 
     75000   3561.5213      301986.52      414.57178      300419.99      302616.84      302922.72      2355.2804      481.92296     -663.23873      7365.3437      4828.8387      12194.182      156414.89      42.764431      42.764431      85.528863          16000 
     76000   3595.5127      297808.03      420.89991      297822.02      298889.37      296712.72      1323.7447     -578.56005      1152.9254      7435.6392      4842.7394      12278.379      156710.55      42.791359      42.791359      85.582719          16000 
     77000   3567.3707      293566.15      427.22847      292964.12      292587.34      295146.99     -666.70479      5638.8739      26.127986      7377.4405      4790.6516      12168.092      156964.53      42.814464      42.814464      85.628927          16000 
     78000   3612.6858      294370.29      433.56045      294738.31      294185.31      294187.26      1932.8989      1645.6123     -865.04376      7471.1537      4784.1307      12255.284      156924.64      42.810837      42.810837      85.621674          16000 
     79000   3600.8528      296952.63      439.89492      295878.84      298231.93      296747.12      583.68627     -239.9564      -1083.5078      7446.6826      4799.3613      12246.044      156761.14      42.795963      42.795963      85.591927          16000 
     80000   3616.4556      297551.32      446.2277       297895.53      299428.81      295329.64     -46.258202      581.27691      3395.583       7478.9497      4901.9793      12380.929      156757.36      42.795619      42.795619      85.591239          16000 
     81000   3576.0927      299565.22      452.56073      298700.56      299182.52      300812.58      1049.6137      73.910214     -298.58008      7395.4779      4832.7351      12228.213      156562         42.777834      42.777834      85.555668          16000 
     82000   3622.1606      298902.9       458.89365      298604.67      300197.01      297907.01      657.92169     -2167.1672     -596.57599      7490.7479      4874.2085      12364.956      156634.23      42.784412      42.784412      85.568823          16000 
     83000   3617.8317      299836.02      465.22567      299383.61      300117.84      300006.62     -3491.41        501.59347     -915.3206       7481.7956      4895.2586      12377.054      156591.01      42.780476      42.780476      85.560952          16000 
     84000   3580.7665      301193.55      471.56176      300193.05      301969.21      301418.39      1292.7674      1010.2374      1805.0684      7405.1435      4818.9704      12224.114      156446.56      42.767318      42.767318      85.534635          16000 
     85000   3593.1045      298742.02      477.90562      298995.79      299321.14      297909.12     -774.01943     -1593.1046     -206.54833      7430.659       4852.3551      12283.014      156678.83      42.788471      42.788471      85.576943          16000 
     86000   3612.9954      297600.4       484.25202      298649.46      296468.73      297683.02     -1580.5939     -2287.8908     -4349.0441      7471.7939      4884.1643      12355.958      156767.9       42.796578      42.796578      85.593156          16000 
     87000   3591.6235      299042.87      490.59985      300421.44      297853.84      298853.33     -2795.9523      2104.0515     -3327.2935      7427.5961      4798.1888      12225.785      156599.95      42.78129       42.78129       85.562579          16000 
     88000   3593.5543      301463.92      496.95111      301531.1       300360.46      302500.19      3252.6464     -727.00432     -3425.8069      7431.5892      4911.9258      12343.515      156574.65      42.778985      42.778985      85.557971          16000 
     89000   3586.2946      303447.28      503.30642      303368.52      304696.59      302276.75      1540.5853      106.81636      1142.703       7416.5758      4822.8815      12239.457      156344.74      42.758037      42.758037      85.516075          16000 
     90000   3630.5643      302850.27      509.66201      303383.29      302433.69      302733.83     -555.32683      792.00254      1311.2555      7508.1269      4900.4615      12408.588      156403.67      42.763408      42.763408      85.526817          16000 
     91000   3597.3851      303995.56      516.01766      303607.09      305325.02      303054.57      1893.1025     -114.04259      3684.9217      7439.5112      4885.3667      12324.878      156335.02      42.757151      42.757151      85.514302          16000 
     92000   3624.5865      304871.61      522.37501      305121.01      305997.79      303496.03     -445.05147     -571.96167      213.26566      7495.7647      4892.1502      12387.915      156301.59      42.754103      42.754103      85.508206          16000 
     93000   3639.6558      305205.56      528.73085      306742.98      303939.21      304934.49     -2418.6417      1286.9103     -585.12357      7526.9285      4942.8342      12469.763      156313.16      42.755158      42.755158      85.510316          16000 
     94000   3605.3897      302284.97      535.08588      300386.95      302972.9       303495.07     -605.7242       1616.3098      1103.2726      7456.0651      4899.4347      12355.5        156492.99      42.771548      42.771548      85.543095          16000 
     95000   3599.1944      301719.52      541.43438      301867.67      300034.25      303256.65     -188.41575      613.00111      1891.5228      7443.2529      4792.2792      12235.532      156409.99      42.763985      42.763985      85.52797           16000 
     96000   3635.0757      298886.84      547.78458      299990.29      298335.26      298334.98      1518.1221      145.89992     -1094.7627      7517.4567      4822.0532      12339.51       156609.33      42.782144      42.782144      85.564289          16000 
     97000   3601.294       302079.61      554.13956      301455.12      304057.89      300725.81      691.58367      964.08535     -1364.2784      7447.595       4810.4699      12258.065      156397.98      42.76289       42.76289       85.52578           16000 
     98000   3616.4392      298841.96      560.49715      299252.87      300432.38      296840.65      413.95494     -1069.8947     -500.74256      7478.9159      4886.9671      12365.883      156651.14      42.785951      42.785951      85.571902          16000 
     99000   3579.0429      295628.65      566.85603      296912.65      293751.43      296221.86     -1465.7738      864.68073     -2863.8135      7401.5791      4782.0138      12183.593      156716.36      42.791888      42.791888      85.583776          16000 
    100000   3566.784       293230.91      573.22053      293179.96      293541.68      292971.09      2576.5248     -2482.519      -672.69732      7376.2273      4727.9423      12104.17       156822.69      42.801564      42.801564      85.603127          16000 
    101000   3596.5418      297442.79      579.57741      297986.63      298712.85      295628.89      510.82644     -457.13672      278.2089       7437.7674      4819.0523      12256.82       156762.12      42.796053      42.796053      85.592106          16000 
    102000   3587.9241      300733.67      585.93416      300801.89      301673.87      299725.25      2304.5245     -716.26278      435.1898       7419.9456      4849.6761      12269.622      156555.28      42.777222      42.777222      85.554443          16000 
    103000   3605.0706      299539.17      592.29271      299189.89      299832.8       299594.81      1395.1356     -1356.2793      1753.4358      7455.4051      4870.0055      12325.411      156600.66      42.781355      42.781355      85.56271           16000 
    104000   3674.4804      301495.42      598.65025      301385.19      300265.27      302835.81      1030.3531      492.58972      975.03305      7598.947       4851.5838      12450.531      156460.75      42.76861       42.76861       85.53722           16000 
    105000   3609.9372      306359.57      605.00733      308989.3       304836.22      305253.18     -2160.1065     -467.03752     -817.79907      7465.4696      4914.6362      12380.106      156196.54      42.744523      42.744523      85.489046          16000 
    106000   3649.37        306495.67      611.36281      305442.78      308224.24      305819.99      2414.3246      232.23515      299.31389      7547.0178      4861.9377      12408.955      156227.14      42.747314      42.747314      85.494628          16000 
    107000   3628.6054      302392.18      617.70459      301247.44      302369.31      303559.78      475.52806     -815.41688      1162.3262      7504.076       4901.821       12405.897      156431.99      42.76599       42.76599       85.531979          16000 
    108000   3627.2257      303507.6       624.04243      304144.94      301849.85      304528.01      160.80354      102.09862      517.47203      7501.2226      4911.3298      12412.552      156402.97      42.763345      42.763345      85.52669           16000 
    109000   3607.4414      299275.09      630.37983      299966.78      298381.25      299477.24     -1700.3081     -2381.9558     -1550.0561      7460.3081      4863.8683      12324.176      156551.82      42.776907      42.776907      85.553814          16000 
    110000   3582.8806      298593.76      636.71544      299186.25      296370.2       300224.83     -968.75764     -1757.7303     -390.70088      7409.5156      4799.8971      12209.413      156589.62      42.780349      42.780349      85.560698          16000 
    111000   3591.2203      299614.86      643.04912      299571.15      299389.17      299884.27     -806.188        69.514011     -1407.07        7426.7623      4865.2123      12291.975      156600.73      42.781361      42.781361      85.562721          16000 
    112000   3587.9651      300604.21      649.38307      301146.14      300532.13      300134.34      1351.1396     -2462.3276      2002.0178      7420.0304      4842.957       12262.987      156550.01      42.776742      42.776742      85.553483          16000 
    113000   3562.057       301454.39      655.71548      301518.15      301679.06      301165.96     -217.57511      2921.3479      1273.4335      7366.4516      4921.5754      12288.027      156484.89      42.77081       42.77081       85.541619          16000 
    114000   3585.8079      300689.74      662.04907      303431.01      299955.47      298682.74      2294.7766     -1504.9133      359.99095      7415.5694      4855.3546      12270.924      156485.18      42.770836      42.770836      85.541671          16000 
    115000   3589.0226      301351.81      668.38271      299305.36      303447.86      301302.23     -2626.8728      282.98567      841.86467      7422.2173      4869.8994      12292.117      156482.61      42.770602      42.770602      85.541204          16000 
    116000   3572.9882      302849.06      674.71428      301487.25      304747.79      302312.13     -2354.5115     -631.58488      548.22915      7389.0578      4919.5359      12308.594      156418.62      42.764771      42.764771      85.529542          16000 
    117000   3628.6129      303405.39      681.04833      302047.64      303925.14      304243.38     -63.565861     -167.28972     -1413.5558      7504.0915      4944.1372      12448.229      156359.42      42.759376      42.759376      85.518751          16000 
    118000   3616.0213      308297.81      687.37964      307428.82      309786.55      307678.05      1214.5146      454.46192      415.56273      7478.0516      4880.3656      12358.417      156073.34      42.733281      42.733281      85.466562          16000 
    119000   3620.3402      301106.23      693.71158      302774.93      298510.17      302033.61     -190.03375      2432.5354      2138.7163      7486.9833      4965.9442      12452.928      156492.26      42.771481      42.771481      85.542962          16000 
    120000   3629.5533      302596.08      700.0438       302863.76      301704.17      303220.3       3471.9504      1564.1734     -1238.2703      7506.0363      4814.9063      12320.943      156415.64      42.7645        42.7645        85.528999          16000 
    121000   3575.7283      300120.56      706.37442      299800.23      300593.45      299968.01      2061.616       377.53748     -1308.7873      7394.7242      4938.0027      12332.727      156569.81      42.778545      42.778545      85.55709           16000 
    122000   3585.3754      300158.25      712.7043       300916.04      300993.73      298565         25.549232      1346.1874      545.34306      7414.6749      4870.3376      12285.013      156599.47      42.781246      42.781246      85.562493          16000 
    123000   3582.5092      299992.5       719.03649      301063.18      299336.03      299578.31     -1467.1655     -3611.4019      243.76412      7408.7474      4903.6365      12312.384      156602.77      42.781546      42.781546      85.563093          16000 
    124000   3570.4781      301101.19      725.36632      300805.52      301487.35      301010.69     -1110.2934     -1095.5083      1545.0631      7383.8667      4803.2311      12187.098      156561.52      42.77779       42.77779       85.555581          16000 
    125000   3588.31        299021.1       731.69732      298145.12      298460.9       300457.29     -1653.5465      1861.7404      2933.3992      7420.7438      4911.5458      12332.29       156661.51      42.786895      42.786895      85.57379           16000 
    126000   3608.7033      301970.58      738.02983      301956.82      302231.84      301723.08     -2642.2351      3128.6211     -64.0407        7462.9178      4956.1931      12419.111      156542.3       42.776039      42.776039      85.552079          16000 
    127000   3604.5774      304065.45      744.36999      303958.74      303513.46      304724.16     -1317.042       301.60721      1278.572       7454.3852      4845.553       12299.938      156394.41      42.762565      42.762565      85.525129          16000 
    128000   3573.9222      304806.52      750.71285      305462.26      303306.62      305650.69      3182.2629      1117.0713      3114.8325      7390.9893      4860.8904      12251.88       156338.23      42.757443      42.757443      85.514887          16000 
    129000   3603.5345      302689.4       757.05967      304530.75      301224.14      302313.32     -1555.4852     -1001.774       320.74886      7452.2285      4861.4128      12313.641      156512.79      42.773352      42.773352      85.546703          16000 
    130000   3605.5471      297013.77      763.40949      297598.84      295699         297743.48      133.92995     -465.99795     -39.040151      7456.3907      4933.5393      12389.93       156697.16      42.79014       42.79014       85.58028           16000 
    131000   3580.6733      296818.76      769.7643       295657.38      296361.56      298437.32     -2746.5173      538.98194      2306.6785      7404.9507      4858.0119      12262.963      156690.49      42.789533      42.789533      85.579066          16000 
    132000   3592.6437      296148.78      776.11902      296518.84      295408.25      296519.26      778.42183      389.26009      1532.5283      7429.706       4892.266       12321.972      156796.01      42.799136      42.799136      85.598272          16000 
    133000   3567.5997      293769.87      782.47632      293007.58      293319.71      294982.33     -356.41689     -742.62273      566.48755      7377.9142      4834.1993      12212.114      156893.36      42.807992      42.807992      85.615984          16000 
    134000   3599.2311      295752.77      788.83403      295405.45      295082.81      296770.06     -68.042259     -2149.9452     -3009.4981      7443.329       4907.2273      12350.556      156866.9       42.805585      42.805585      85.61117           16000 
    135000   3568.9973      299280.95      795.18909      297797.62      300116.73      299928.49      63.225302     -1493.4701     -685.84718      7380.8044      4909.9724      12290.777      156541.43      42.77596       42.77596       85.55192           16000 
    136000   3593.2791      302130.66      801.5483       299292.09      303688.69      303411.18      467.61467      2488.1552      4280.6209      7431.0199      4888.7316      12319.751      156470.5       42.769498      42.769498      85.538996          16000 
    137000   3572.35        305150.29      807.90547      304658.18      305876.53      304916.16      1468.4932      1036.5563      1184.6808      7387.7379      4882.8791      12270.617      156306.83      42.754581      42.754581      85.509162          16000 
    138000   3635.3666      303447.21      814.26184      303948.71      303267.45      303125.47      567.98773     -1113.4264     -1717.2685      7518.0582      4872.3218      12390.38       156418.8       42.764788      42.764788      85.529575          16000 
    139000   3590.1993      301949.16      820.6177       300122.82      303819.43      301905.23     -1468.924       1945.8497     -494.49156      7424.6508      4888.0333      12312.684      156415.01      42.764442      42.764442      85.528884          16000 
    140000   3580.9453      300262.28      826.97478      301163.18      301655.27      297968.39     -137.60092      962.40595     -950.69006      7405.5134      4802.106       12207.619      156556.13      42.777299      42.777299      85.554598          16000 
    141000   3604.8086      300246.85      833.33377      301173.25      298943.78      300623.53      4052.7875     -569.99004      1086.6328      7454.8633      4894.0391      12348.902      156550.56      42.776791      42.776791      85.553583          16000 
    142000   3601.1715      301877.79      839.69513      302153.45      302686.9       300793        -3300.266       1372.3469      990.14142      7447.3418      4933.1795      12380.521      156433.75      42.76615       42.76615       85.532299          16000 
    143000   3605.4644      300901.58      846.05437      300889.55      301234.81      300580.39      671.24647     -123.46039     -1545.7923      7456.2196      4851.106       12307.326      156463.44      42.768855      42.768855      85.53771           16000 
    144000   3595.3915      298680.06      852.41318      301237.46      297725.67      297077.06      636.65633     -678.55339      177.70384      7435.3884      4871.9383      12307.327      156688.25      42.789329      42.789329      85.578658          16000 
    145000   3641.0812      298303.49      858.77182      301029.6       297677.86      296203.01      347.31585      1519.4009     -1891.5126      7529.8762      4743.7251      12273.601      156680.7       42.788642      42.788642      85.577283          16000 
    146000   3618.1644      297240.06      865.12799      297303.92      299084.16      295332.11     -545.09759      2021.0242      989.95304      7482.4837      4828.5295      12311.013      156758.18      42.795693      42.795693      85.591387          16000 
    147000   3586.3784      296971.17      871.48418      297317.86      297609.4       295986.25      1515.7897     -5016.8529     -1090.3715      7416.7491      4842.6722      12259.421      156727.96      42.792944      42.792944      85.585888          16000 
    148000   3602.3358      299234.97      877.84025      301686.5       297636.57      298381.85      536.16695      2319.1678     -2043.8235      7449.7495      4816.7953      12266.545      156636.42      42.78461       42.78461       85.569221          16000 
    149000   3588.2556      297664.56      884.19492      299690.63      295607.99      297695.06     -716.00714     -2528.1482     -511.75923      7420.6312      4851.8529      12272.484      156713.79      42.791654      42.791654      85.583307          16000 
    150000   3595.4116      298657.07      890.55254      299080.11      298464.47      298426.64      1035.0045      1047.6245     -1211.9604      7435.43        4913.393       12348.823      156626.7       42.783726      42.783726      85.567451          16000 
    151000   3582.9737      301214.94      896.91107      302716.8       301529.09      299398.93     -989.55492      583.09543      3457.7251      7409.7081      4836.8837      12246.592      156495.31      42.771759      42.771759      85.543517          16000 
    152000   3609.3616      298297.45      903.27156      297793.22      299249.56      297849.56     -462.15883      1153.5052      1473.0547      7464.279       4808.1398      12272.419      156577.27      42.779224      42.779224      85.558448          16000 
    153000   3609.288       300050.3       909.6313       301402.96      298178.43      300569.53     -652.29553      438.94534     -1641.5199      7464.1269      4842.526       12306.653      156601.82      42.78146       42.78146       85.56292           16000 
    154000   3587.8346      301190.24      915.98944      300838.72      302093.11      300638.89      131.53718     -537.23166     -2089.5196      7419.7606      4781.0483      12200.809      156497.79      42.771985      42.771985      85.543969          16000 
    155000   3631.2508      299618.41      922.35006      300732.46      298914.91      299207.86     -388.81951     -2278.7154     -987.69205      7509.5467      4834.9046      12344.451      156646.16      42.785498      42.785498      85.570996          16000 
    156000   3629.0551      300864.98      928.70788      300448.71      300036.95      302109.27      2222.4159      188.54608      180.5338       7505.0059      4750.213       12255.219      156500.05      42.77219       42.77219       85.544381          16000 
    157000   3596.9958      300043.91      935.06687      300265.81      300444.15      299421.77      2637.4949     -1396.2744      1950.5797      7438.7063      4920.5391      12359.245      156573.35      42.778868      42.778868      85.557736          16000 
    158000   3598.9216      302547.01      941.42501      302356.38      303343.9       301940.75      120.56187     -1301.9042      959.85825      7442.6889      4931.519       12374.208      156485.5       42.770865      42.770865      85.54173           16000 
    159000   3632.2379      301492.41      947.78267      302657.67      300680.12      301139.45      291.72319      911.98208      2265.5294      7511.588       4794.6945      12306.283      156477.05      42.770095      42.770095      85.54019           16000 
    160000   3603.782       302089.96      954.14163      301311.58      303200.31      301758        -3331.8047      3192.4921      1785.2145      7452.7404      4878.1518      12330.892      156420.03      42.7649        42.7649        85.5298            16000 
    161000   3574.0709      301304.91      960.50343      302616.23      299234.58      302063.92     -1045.877      -218.63169      1440.8088      7391.2967      4895.3671      12286.664      156496.5       42.771867      42.771867      85.543734          16000 
    162000   3546.8286      301628.48      966.85732      301294.83      301867.68      301722.95      740.80508     -2336.1601     -598.24102      7334.9588      4912.4852      12247.444      156420.93      42.764982      42.764982      85.529964          16000 
    163000   3594.6467      300599.78      973.21667      300511.41      299125.92      302162.01      900.90951     -745.72324     -529.72654      7433.8483      4875.5223      12309.371      156491.29      42.771393      42.771393      85.542785          16000 
    164000   3629.6839      299293.89      979.5741       298436.18      299509.09      299936.41     -2494.5691     -2096.8303      141.193        7506.3064      4895.3977      12401.704      156603.5       42.781613      42.781613      85.563227          16000 
    165000   3605.1937      297954.66      985.93352      297363.07      297419.42      299081.49      1049.6998      1699.1996      1246.3531      7455.6598      4820.1413      12275.801      156685.91      42.789116      42.789116      85.578232          16000 
    166000   3589.6813      297080.44      992.2938       297095.9       297396.41      296749.03     -2278.0806     -1411.4124      1985.4249      7423.5796      4913.5703      12337.15       156842.26      42.803344      42.803344      85.606688          16000 
    167000   3596.6128      295896.15      998.65274      296718.19      294275.77      296694.49     -2349.3052     -1382.1302      278.3957       7437.9142      4822.7999      12260.714      156803.69      42.799835      42.799835      85.599669          16000 
    168000   3576.1562      298916.96      1005.0143      300675.66      298128.7       297946.52     -3223.1777      2043.006      -1652.3867      7395.6093      4810.7987      12206.408      156584.85      42.779915      42.779915      85.55983           16000 
    169000   3623.6756      297567.89      1011.3752      297762.05      296429.08      298512.55     -1614.8994     -1043.5236      502.67708      7493.881       4805.609       12299.49       156764.5       42.796269      42.796269      85.592539          16000 
    170000   3609.603       301370.19      1017.735       301341.78      300548.99      302219.81      780.11328      561.57354      2056.7219      7464.7784      4813.095       12277.873      156492.31      42.771486      42.771486      85.542972          16000 
    171000   3565.1809      303734.11      1024.0933      303965.4       302834.94      304402.01      379.12332     -678.00279      790.85645      7372.9119      4926.1661      12299.078      156377.58      42.761031      42.761031      85.522062          16000 
    172000   3591.3241      303008.8       1030.4512      304308.12      303395.49      301322.79      223.27934      8.0098623      1941.0909      7426.9769      4850.7533      12277.73       156365.34      42.759915      42.759915      85.51983           16000 
    173000   3612.6739      300006.55      1036.8124      299356.09      301719.46      298944.09      1230.1403     -125.26727     -1449.4658      7471.1291      4893.2332      12364.362      156546.71      42.776441      42.776441      85.552883          16000 
    174000   3581.669       299977         1043.1754      298469.56      299771.67      301689.77      1433.4309     -1752.0365      2377.817       7407.0099      4836.4143      12243.424      156523.36      42.774314      42.774314      85.548629          16000 
    175000   3586.8393      297437.94      1049.5357      297677.21      296708.63      297927.99      1857.5226     -881.13788     -1431.0664      7417.7023      4864.2974      12282          156682.23      42.788781      42.788781      85.577562          16000 
    176000   3584.2819      299704.41      1055.896       299533.01      302054.15      297526.06     -2867.745      -1632.2786      105.92277      7412.4135      4874.8576      12287.271      156443.12      42.767004      42.767004      85.534008          16000 
    177000   3581.9649      302530.13      1062.2571      301296.02      301548.55      304745.82      1217.8358     -930.58619      860.13356      7407.6217      4938.2055      12345.827      156430.11      42.765818      42.765818      85.531636          16000 
    178000   3592.3711      299733.35      1068.6129      300691.16      298510.79      299998.1       338.72792     -332.70739     -728.39964      7429.1423      4890.0173      12319.16       156523.28      42.774307      42.774307      85.548615          16000 
    179000   3604.4828      298997.55      1074.9728      298156.9       300762.36      298073.37     -483.25812      2781.9222      1871.1272      7454.1896      4776.3203      12230.51       156530.09      42.774928      42.774928      85.549855          16000 
    180000   3637.2287      295234.84      1081.3344      297197.91      293414.62      295092         2459.2109      566.3039       4802.0774      7521.9093      4843.6416      12365.551      156896.61      42.808287      42.808287      85.616575          16000 
    181000   3605.9978      295303.61      1087.6933      294989.71      294968.98      295952.14      1618.4702     -97.27551       202.36134      7457.3227      4766.1304      12223.453      156757.42      42.795625      42.795625      85.59125           16000 
    182000   3541.0906      299053.62      1094.0541      299527.6       299503.7       298129.58     -811.589        24.246333      1241.4414      7323.0924      4872.3727      12195.465      156520.96      42.774096      42.774096      85.548192          16000 
    183000   3593.8072      298734.01      1100.4134      298547.04      298328         299326.98      49.04098      -1462.8172      960.24255      7432.1122      4952.5789      12384.691      156661.34      42.786879      42.786879      85.573758          16000 
    184000   3619.7901      301054.51      1106.7748      302399.58      300770.42      299993.53     -3941.8228     -463            1418.5256      7485.8455      4778.4265      12264.272      156451.02      42.767724      42.767724      85.535447          16000 
    185000   3615.4637      298725.14      1113.1323      299144.93      298834.35      298196.16     -1813.1987      1442.0919      72.670092      7476.8984      4846.6215      12323.52       156717.51      42.791993      42.791993      85.583986          16000 
    186000   3568.7417      298415.69      1119.49        300140.24      297623.51      297483.34      820.4187       1788.1012     -1566.1827      7380.2759      4762.8422      12143.118      156541.55      42.775972      42.775972      85.551943          16000 
    187000   3624.6007      295347.35      1125.8528      295308.09      294374.41      296359.54     -1103.7066     -958.84522      2636.2649      7495.794       4832.9155      12328.71       156802.52      42.799728      42.799728      85.599457          16000 
    188000   3561.4172      296906.54      1132.2111      296756.51      297235.31      296727.81     -454.92472     -34.979981     -1805.0608      7365.1284      4831.9679      12197.096      156623.94      42.783475      42.783475      85.566949          16000 
    189000   3568.6774      299119.16      1138.5708      298454.66      300051.4       298851.43      569.15714      1840.8458     -684.00018      7380.1429      4856.3534      12236.496      156616.22      42.782772      42.782772      85.565543          16000 
    190000   3612.9778      296677.59      1144.9307      295080.79      297803.17      297148.82      1394.7525     -2772.8013     -440.92849      7471.7575      4817.2364      12288.994      156675.94      42.788209      42.788209      85.576418          16000 
    191000   3654.4118      300903.08      1151.2922      300689.07      300716.03      301304.14     -2396.9475     -953.6868       1620.3396      7557.4444      4864.5575      12422.002      156633.09      42.784308      42.784308      85.568616          16000 
    192000   3590.2271      303868.96      1157.6515      303822.85      303584.96      304199.08      1909.7602      878.19513      1552.5277      7424.7083      4867.0638      12291.772      156292.91      42.753311      42.753311      85.506623          16000 
    193000   3606.1         305503.28      1164.011       306659.23      305107.81      304742.79     -773.15089     -58.542922     -1191.1171      7457.534       5030.0332      12487.567      156310.44      42.75491       42.75491       85.50982           16000 
    194000   3622.8221      304403.78      1170.3688      304760.21      305451.62      302999.52      1078.7855     -2717.4936     -545.54684      7492.1158      4912.4374      12404.553      156300.32      42.753988      42.753988      85.507975          16000 
    195000   3595.6968      305447.11      1176.7267      305225.74      305978.87      305136.71      1917.6425      1062.9683     -3311.0472      7436.0199      4956.4629      12392.483      156257.28      42.750063      42.750063      85.500125          16000 
    196000   3551.2817      301881.18      1183.0885      303028.07      300551.44      302064.02     -145.98495     -4400.267      -1504.9171      7344.1679      4870.6241      12214.792      156370.31      42.760368      42.760368      85.520735          16000 
    197000   3551.0703      299622.75      1189.4488      299669.28      299885.9       299313.08      1438.1212     -1786.3365     -227.86687      7343.7308      4979.0754      12322.806      156570.96      42.77865       42.77865       85.5573            16000 
    198000   3593.264       302812.85      1195.8075      304831.07      302269.84      301337.64     -238.35177     -2430.5807      1336.1483      7430.9888      4794.4631      12225.452      156349.45      42.758466      42.758466      85.516933          16000 
    199000   3635.1122      299599.59      1202.1695      299703.78      298601.04      300493.94      2584.2578      62.716744      1025.9889      7517.5323      4824.0732      12341.605      156491.4       42.771403      42.771403      85.542805          16000 
    200000   3596.4758      297578.96      1208.5348      296552.76      298483.34      297700.78      842.63675     -719.42495      3093.703       7437.6309      4830.9377      12268.569      156690.15      42.789502      42.789502      85.579004          16000 
    201000   3569.4287      294012.64      1214.8941      293413.82      293931.99      294692.1       2604.3363      561.39004      2555.5194      7381.6965      4753.4353      12135.132      156782.24      42.797883      42.797883      85.595767          16000 
    202000   3576.6504      297094.96      1221.2535      295685.77      296808.5       298790.61      1896.4389     -1256.5755     -958.27634      7396.6314      4870.6119      12267.243      156747.42      42.794715      42.794715      85.58943           16000 
    203000   3581.5507      299596.72      1227.6128      298555.77      300395.64      299838.75     -1214.0074      1913.6215     -2591.3768      7406.7653      4779.4032      12186.169      156508.74      42.772982      42.772982      85.545964          16000 
    204000   3616.5563      300800.06      1233.9744      302611.59      300669.14      299119.45     -2068.6059      1542.3576     -82.860242      7479.1579      4891.6804      12370.838      156526.61      42.77461       42.77461       85.54922           16000 
    205000   3603.8101      301236.06      1240.3308      301681.11      300514.04      301513.02     -2710.5887      596.0267      -4745.6523      7452.7984      4906.1605      12358.959      156519.52      42.773964      42.773964      85.547928          16000 
    206000   3576.1276      304840.31      1246.6893      305224.35      304012.5       305284.08     -1560.2659      2636.1004     -315.7646       7395.55        4956.2085      12351.759      156318.48      42.755643      42.755643      85.511285          16000 
    207000   3633.4741      303140.34      1253.0485      303145.94      302375.12      303899.97      563.60858      2022.033       135.30847      7514.1445      4943.8856      12458.03       156430.15      42.765822      42.765822      85.531644          16000 
    208000   3593.4753      301153.85      1259.4082      301330.8       300867.8       301262.94      1613.5622      723.00392     -39.370447      7431.4257      4899.976       12331.402      156561.47      42.777785      42.777785      85.555571          16000 
    209000   3583.9355      299403.91      1265.7688      299025.46      299826.54      299359.72     -81.04959      -2210.1703     -36.472787      7411.697       4921.038       12332.735      156696         42.790035      42.790035      85.58007           16000 
    210000   3602.4227      300533.91      1272.1279      301906.46      299353.75      300341.53      232.7317       4135.0065     -3368.4592      7449.9292      4836.9964      12286.926      156590.71      42.780449      42.780449      85.560897          16000 
    211000   3619.1584      299019.97      1278.4879      301478.16      299070.1       296511.66     -2010.7676     -1512.1819      333.81413      7484.5391      4828.8563      12313.395      156670.76      42.787737      42.787737      85.575475          16000 
    212000   3573.6189      302926.6       1284.8501      304468.57      302540.61      301770.62     -2277.9201     -1596.4482     -1056.6506      7390.3621      4879.4389      12269.801      156499.29      42.772122      42.772122      85.544243          16000 
    213000   3608.5688      299895.65      1291.2072      300063.98      299453.67      300169.31     -660.39035     -1645.4991      1652.8109      7462.6396      4811.4194      12274.059      156580.71      42.779538      42.779538      85.559076          16000 
    214000   3596.8899      296572.03      1297.5665      297321.21      296800.26      295594.62      5058.8119      140.91959      458.58457      7438.4871      4814.5387      12253.026      156758.69      42.79574       42.79574       85.59148           16000 
    215000   3682.1338      296324.29      1303.928       296628.55      298456.18      293888.16     -4145.5351      1497.6773     -4715.0421      7614.7744      4743.9976      12358.772      156829.11      42.802148      42.802148      85.604296          16000 
    216000   3607.7902      299283.99      1310.2868      298460.46      299217.71      300173.79      3428.2807      249.55903      1693.5566      7461.0295      4840.5942      12301.624      156611.61      42.782352      42.782352      85.564704          16000 
    217000   3601.5892      299543.18      1316.6398      297876.4       300430.31      300322.84     -1247.3266     -257.10869      58.027694      7448.2055      4790.7952      12239.001      156582.02      42.779657      42.779657      85.559315          16000 
    218000   3634.3142      296902.47      1322.9906      295852.19      297934.24      296920.97      618.58099      2034.5605      2403.0979      7515.8819      4824.0939      12339.976      156771.17      42.796876      42.796876      85.593753          16000 
    219000   3615.3257      296210.48      1329.3402      296146.75      296782.9       295701.78     -936.02818     -717.79164     -3355.691       7476.613       4780.1125      12256.726      156746.52      42.794633      42.794633      85.589266          16000 
    220000   3569.6908      295857.03      1335.6961      295418.37      296803.57      295349.16      6.0418273     -609.71551     -702.14978      7382.2387      4897.1091      12279.348      156820.66      42.801379      42.801379      85.602758          16000 
    221000   3591.9693      296848.46      1342.0558      297848.86      296690.45      296006.06      147.5578      -1164.3817     -2034.6486      7428.3113      4803.8212      12232.132      156723.6       42.792546      42.792546      85.585093          16000 
    222000   3591.8854      292729.08      1348.4195      293005.18      292583.73      292598.33     -1411.5241     -1677.887      -1501.8627      7428.1378      4864.6786      12292.816      156979.78      42.81585       42.81585       85.6317            16000 
    223000   3595.6262      298805.53      1354.7837      298969.35      298602.91      298844.33     -277.0041       391.35577     -1784.5175      7435.8738      4787.392       12223.266      156607.24      42.781953      42.781953      85.563907          16000 
    224000   3598.5891      298504.77      1361.1469      298650.74      300404.1       296459.47      22.274255     -1423.5904      418.86898      7442.0013      4799.7319      12241.733      156578.92      42.779375      42.779375      85.55875           16000 
    225000   3628.5704      297768.41      1367.5096      297115.35      297732.69      298457.2       3539.9732     -968.94625      737.52383      7504.0035      4905.3298      12409.333      156660.2       42.786776      42.786776      85.573552          16000 
    226000   3620.9452      300520.06      1373.8704      300462.04      300252.31      300845.82      1352.704       385.61953     -1618.677       7488.2344      4833.8902      12322.125      156541.46      42.775963      42.775963      85.551927          16000 
    227000   3557.0348      302630.92      1380.2291      303859         302166.07      301867.7       810.88592      97.540702     -985.53521      7356.0655      4791.7359      12147.801      156368.07      42.760164      42.760164      85.520328          16000 
    228000   3603.7977      301667.67      1386.592       303191.65      300819.21      300992.15      3313.16        1303.6623      1294.9799      7452.7729      4931.1368      12383.91       156563.63      42.777982      42.777982      85.555965          16000 
    229000   3599.9749      300383.82      1392.9537      300321.62      299814.44      301015.41      221.32357     -929.79091      491.84736      7444.8672      4837.0013      12281.868      156469.83      42.769438      42.769438      85.538876          16000 
    230000   3630.4743      297886.53      1399.3147      298181.34      298152.92      297325.33     -59.003726     -3071.8077     -665.81902      7507.9408      4845.9029      12353.844      156699.65      42.790367      42.790367      85.580735          16000 
    231000   3583.5557      300625.26      1405.6759      301139.19      300812.62      299923.98      1885.0875      4137.4161      2027.4807      7410.9117      4825.3824      12236.294      156582.2       42.779674      42.779674      85.559347          16000 
    232000   3630.2083      297555.3       1412.0383      300082.08      295950.94      296632.9      -2141.5284      3292.5521      3452.5243      7507.3909      4818.818       12326.209      156735.87      42.793664      42.793664      85.587327          16000 
    233000   3559.3508      300542.31      1418.3982      299648.1       300497.6       301481.23      196.59084      1223.1311      1874.9336      7360.8551      4863.8948      12224.75       156508.93      42.773         42.773         85.546             16000 
    234000   3577.5282      301216.1       1424.7604      302405.15      300088.84      301154.32     -1510.508      -213.69825      699.60126      7398.4466      4906.2269      12304.673      156479.08      42.77028       42.77028       85.540561          16000 
    235000   3634.8444      301145.31      1431.1211      300557.69      301594.52      301283.72      3122.5467      2374.1394     -3139.8889      7516.9785      4876.2544      12393.233      156485.09      42.770828      42.770828      85.541655          16000 
    236000   3577.2392      300478.94      1437.4767      299230.95      302654.7       299551.17      2656.4983     -1094.2505      2257.6708      7397.849       4821.419       12219.268      156451.81      42.767796      42.767796      85.535592          16000 
    237000   3612.8075      297887.8       1443.8359      296720.18      298513.01      298430.21      766.45471     -1795.6849     -1954.4874      7471.4054      4862.4852      12333.891      156762.25      42.796064      42.796064      85.592128          16000 
    238000   3574.4281      296150.31      1450.1966      296219.95      296399.69      295831.28      1103.481      -3111.7165      1822.7897      7392.0354      4835.2003      12227.236      156735.27      42.793609      42.793609      85.587218          16000 
    239000   3607.5943      294811.44      1456.559       296243.51      294528.86      293661.96     -2520.8485     -1139.704      -80.660367      7460.6243      4844.0082      12304.633      156823.81      42.801665      42.801665      85.603331          16000 
    240000   3576.3269      298123.34      1462.9179      298512.99      297851.46      298005.58      874.2495      -146.073        719.5557       7395.9622      4820.2835      12216.246      156623.24      42.783411      42.783411      85.566821          16000 
    241000   3574.1029      299232.67      1469.2736      299299.9       299555.94      298842.16      177.67655     -223.39533     -2278.3005      7391.363       4845.4725      12236.835      156535.01      42.775375      42.775375      85.550751          16000 
    242000   3596.3445      300855.67      1475.6342      299471.22      300847.92      302247.87     -1239.5474     -1159.7477      1618.2317      7437.3594      4841.348       12278.707      156532.49      42.775146      42.775146      85.550291          16000 
    243000   3569.7304      300106.19      1481.9975      300575.66      298886         300856.9      -1093.3668     -705.05657     -666.54539      7382.3205      4895.6171      12277.938      156574.89      42.779008      42.779008      85.558016          16000 
    244000   3634.1923      296894.51      1488.3582      297378.2       297732.71      295572.61      3237.5421      1287.0187     -140.80021      7515.6297      4814.1734      12329.803      156722.43      42.792441      42.792441      85.584881          16000 
    245000   3560.2388      299159.02      1494.7197      300243.86      298031.21      299202         1420.6864      926.88101     -3066.3912      7362.6916      4833.4567      12196.148      156592.72      42.780632      42.780632      85.561263          16000 
    246000   3604.0465      294163.41      1501.0747      293293.27      295905.34      293291.63      738.9272      -421.6057      -1572.1839      7453.2873      4796.3422      12249.63       156899         42.808505      42.808505      85.61701           16000 
    247000   3584.895       297893.67      1507.4301      299741.74      297219.34      296719.93     -3415.3933      1656.6606     -2082.4764      7413.6813      4791.8826      12205.564      156725.76      42.792743      42.792743      85.585487          16000 
    248000   3579.0793      297222.53      1513.7954      297035.59      298597.51      296034.48      451.18857     -2351.3238      2291.8987      7401.6543      4768.3104      12169.965      156703.53      42.79072       42.79072       85.58144           16000 
    249000   3623.0923      294685.69      1520.1528      294763.13      294618.79      294675.16     -3990.8746      91.228639      2515.7271      7492.6747      4805.996       12298.671      156910.62      42.809562      42.809562      85.619124          16000 
    250000   3588.2216      297476.08      1526.5108      297316.47      296460.9       298650.88     -265.74817     -1872.5657      3145.1443      7420.5608      4703.3475      12123.908      156693.78      42.789833      42.789833      85.579666          16000 
    251000   3608.3873      295391.54      1532.8712      294262.57      295615.03      296297        -354.69623     -298.61607      412.02778      7462.2643      4844.343       12306.607      156816.52      42.801002      42.801002      85.602004          16000 
    252000   3597.9631      298041.56      1539.2304      299214.24      297511.07      297399.38     -2443.7813     -1992.7332     -475.22248      7440.7067      4838.5265      12279.233      156595.47      42.780882      42.780882      85.561765          16000 
    253000   3551.8505      298911.88      1545.592       298881.89      299366.29      298487.46      447.6948      -2020.5861      978.12357      7345.3444      4846.3364      12191.681      156581.71      42.779629      42.779629      85.559258          16000 
    254000   3611.7135      299558.49      1551.9524      298486.86      299500.77      300687.83     -2023.3396     -3725.0461     -61.438112      7469.1429      4867.3859      12336.529      156554.1       42.777115      42.777115      85.554229          16000 
    255000   3622.0603      299999.68      1558.3122      300080.92      300653.39      299264.72     -562.35348      24.85638       2178.8324      7490.5405      4925.3346      12415.875      156537.9       42.775639      42.775639      85.551278          16000 
    256000   3629.1591      302233.32      1564.6746      303014.87      301829.61      301855.48     -1424.7199     -2093.2562      2392.258       7505.221       4771.2969      12276.518      156385.94      42.761792      42.761792      85.523584          16000 
    257000   3578.4464      299577.14      1571.0353      301066.77      299248.93      298415.72     -295.68707     -2631.408      -542.36831      7400.3454      4829.9957      12230.341      156529.36      42.77486       42.77486       85.549721          16000 
    258000   3637.5928      299248.78      1577.3944      296971.83      300788         299986.51     -623.08194     -1851.0705      1566.1228      7522.6621      4960.6252      12483.287      156684.57      42.788995      42.788995      85.577989          16000 
    259000   3607.0868      298022.49      1583.7534      299210.96      297260.45      297596.07     -42.587826     -615.1188      -3674.6821      7459.5747      4818.3777      12277.952      156597.45      42.781062      42.781062      85.562124          16000 
    260000   3575.0066      298284.3       1590.1104      296876.41      297973.06      300003.42     -3237.7748     -1463.0179     -587.9649       7393.2319      4891.5599      12284.792      156632.83      42.784284      42.784284      85.568567          16000 
    261000   3621.8624      298551.17      1596.4675      297615.84      298658.84      299378.84     -23.367795     -660.93738      177.67987      7490.1311      4868.4799      12358.611      156668.71      42.787551      42.787551      85.575101          16000 
    262000   3614.5045      300618.65      1602.8284      300442.71      302219.17      299194.06     -306.32642      638.33737      1840.7255      7474.9148      4840.8609      12315.776      156451.29      42.767748      42.767748      85.535496          16000 
    263000   3626.6248      299841.14      1609.1849      300084.56      300288.28      299150.57     -213.3945      -1525.8846     -56.961407      7499.98        4910.2525      12410.233      156633         42.784299      42.784299      85.568599          16000 
    264000   3610.7852      299458         1615.543       299390.19      298737.82      300245.98      1822.0822     -163.97406      3618.3123      7467.2231      4846.5286      12313.752      156626.11      42.783672      42.783672      85.567343          16000 
    265000   3581.1305      300891.12      1621.9005      298539.54      301366.34      302767.48     -1013.9555     -1899.2321     -1652.249       7405.8962      4871.8745      12277.771      156475         42.769908      42.769908      85.539816          16000 
    266000   3602.0145      301204.34      1628.2614      302993.75      299799.51      300819.77      245.03492      2823.4498      338.93566      7449.0851      4810.8326      12259.918      156439.42      42.766666      42.766666      85.533333          16000 
    267000   3588.1227      299850.28      1634.6221      300447.13      298366.19      300737.51      517.45614     -1136.0397     -1409.7736      7420.3565      4920.4166      12340.773      156557.69      42.777441      42.777441      85.554882          16000 
    268000   3617.8223      301949.96      1640.9821      300639.1       302655.1       302555.68      472.49943      1105.6762      1286.2179      7481.7761      4779.8775      12261.654      156366.22      42.759995      42.759995      85.519991          16000 
    269000   3615.9962      306674.05      1647.3428      306480.66      306726.25      306815.23     -1334.1247      2853.0371      3179.1788      7477.9997      4938.4267      12416.426      156194.6       42.744346      42.744346      85.488692          16000 
    270000   3639.3376      307749.44      1653.7027      306374.43      309038.4       307835.5       602.52719     -3589.5505      86.178699      7526.2706      4906.6072      12432.878      156187.02      42.743654      42.743654      85.487309          16000 
    271000   3612.9679      303808.24      1660.0607      304356.44      302973.23      304095.06     -2268.9958     -1110.7382     -541.11319      7471.737       4890.2774      12362.014      156353         42.75879       42.75879       85.517581          16000 
    272000   3652.6782      301253.68      1666.4204      303547.48      300350.66      299862.91     -1618.2935     -1670.1442      1419.975       7553.8592      4896.6597      12450.519      156538.58      42.775701      42.775701      85.551402          16000 
    273000   3581.0341      301780.87      1672.7783      300995.92      300669.33      303677.35      626.32018      837.8686      -3548.3484      7405.697       4879.1494      12284.846      156397.77      42.762871      42.762871      85.525742          16000 
    274000   3647.0715      300773.79      1679.1336      301467.39      302261.23      298592.73      1042.4242      488.42109     -2013.4843      7542.2644      4892.7043      12434.969      156585.82      42.780003      42.780003      85.560007          16000 
    275000   3620.289       300068.75      1685.493       299353.68      300397.43      300455.15     -320.61906      537.65685     -508.87755      7486.8774      4865.9555      12352.833      156579.66      42.779442      42.779442      85.558884          16000 
    276000   3620.4079      301754.52      1691.8504      302351         303060.29      299852.27     -4023.0376      1767.6937     -496.48766      7487.1232      4829.3151      12316.438      156486.72      42.770977      42.770977      85.541953          16000 
    277000   3602.2114      299846.62      1698.2101      298417.78      300461.88      300660.2       186.40445      265.20083      1460.9013      7449.4922      4947.0252      12396.517      156488.31      42.771122      42.771122      85.542243          16000 
    278000   3592.6528      300623.59      1704.568       300595.64      301991.87      299283.25     -1469.8901     -1246.4436      1602.5958      7429.7247      4896.2383      12325.963      156470.71      42.769517      42.769517      85.539035          16000 
    279000   3619.2179      298910.99      1710.9297      297901.21      300385         298446.77     -1925.1264      300.16194     -331.36186      7484.6623      4872.5796      12357.242      156592.05      42.780571      42.780571      85.561141          16000 
    280000   3557.1847      301409.72      1717.2879      302023.63      299922.4       302283.12      2203.4185      814.12466      2831.7958      7356.3756      4866.7902      12223.166      156422.02      42.765081      42.765081      85.530162          16000 
    281000   3598.2103      298161.44      1723.6486      295864.29      300554.75      298065.27     -1206.8831      870.94121      2266.9909      7441.2179      4845.8021      12287.02       156633.05      42.784303      42.784303      85.568607          16000 
    282000   3560.4856      300191.3       1730.0069      301292.05      299887.7       299394.15      1483.0565     -185.61789     -864.34152      7363.2019      4807.382       12170.584      156543.24      42.776125      42.776125      85.552251          16000 
    283000   3588.8125      297903.44      1736.3671      298207.29      297647.93      297855.1       2197.9926      995.14745     -664.44079      7421.7828      4916.6285      12338.411      156675.9       42.788205      42.788205      85.576409          16000 
    284000   3597.2552      295641.3       1742.7262      297003.09      295215.32      294705.5      -227.164        796.95064     -376.54049      7439.2428      4736.3006      12175.543      156682.57      42.788813      42.788813      85.577625          16000 
    285000   3577.0044      297548.84      1749.0853      296937.44      299710.1       295998.97     -2748.9592      2246.4442      5295.9147      7397.3634      4900.6658      12298.029      156664.66      42.787182      42.787182      85.574364          16000 
[...]
   3930000   3555.4318      300721.75      6603.2489      298842.73      297320.97      306001.56      799.7006      -141.08163     -492.33746      7352.7505      11439.355      18792.105      159907.19      43.021585      43.021585      86.396306          16000 
   3931000   3532.9947      298703.9       6610.354       292197.06      299721.9       304192.73      4293.149       611.49389     -1100.7755      7306.3499      11452.557      18758.907      160082.29      43.037282      43.037282      86.427828          16000 
   3932000   3538.941       297761.45      6617.4621      291185.04      297840.08      304259.23      115.0531      -3536.4105     -1597.5583      7318.6469      11432.532      18751.179      160117.34      43.040423      43.040423      86.434136          16000 
   3933000   3545.6974      301392.04      6624.5669      297119.01      298395.86      308661.26      76.787224     -2810.4627      1178.0264      7332.6195      11448.516      18781.135      159951.45      43.025554      43.025554      86.404275          16000 
   3934000   3566.3615      299591.87      6631.6775      299418.94      295625.79      303730.89     -1962.0204     -1342.3213     -1783.8837      7375.3535      11405.079      18780.432      159952.7       43.025667      43.025667      86.404502          16000 
   3935000   3531.6081      298663.46      6638.7856      292049.57      296841.46      307099.37     -5487.4933      1732.1447     -1115.9689      7303.4823      11483.621      18787.103      159916.58      43.022427      43.022427      86.397997          16000 
   3936000   3540.3509      299110.98      6645.8984      294628.23      297414.23      305290.47      1489.8945      2882.3605      1499.5525      7321.5627      11474.645      18796.208      159865.18      43.017817      43.017817      86.388739          16000 
   3937000   3524.1121      300410.05      6653.0062      297500.66      299731.57      303997.92      2644.9477      1977.4552     -2171.3417      7287.9803      11519.597      18807.578      159803.83      43.012314      43.012314      86.377686          16000 
   3938000   3548.4111      297473.17      6660.1133      292023.24      296169.86      304226.4       1131.0132     -630.70306     -1769.2946      7338.2316      11416.945      18755.176      160080.99      43.037166      43.037166      86.427595          16000 
   3939000   3519.4256      299822.26      6667.2208      297369.87      295883.98      306212.94      1006.7906      1180.8906      1370.2903      7278.2885      11504.025      18782.314      159934.75      43.024056      43.024056      86.401268          16000 
   3940000   3520.4942      298035.13      6674.3289      295013.79      294354.33      304737.28      289.96159      783.01881     -1078.6398      7280.4984      11476.138      18756.637      160070.73      43.036247      43.036247      86.425749          16000 
   3941000   3522.3304      300734.95      6681.4337      295380.61      297010.19      309814.06     -3812.1963     -3009.784       2646.9373      7284.2958      11513.86       18798.156      159846.74      43.016164      43.016164      86.385418          16000 
   3942000   3528.2933      299336.29      6688.5364      293308.68      296542.98      308157.23      2034.7517      3023.9217     -2782.9154      7296.6272      11481.732      18778.36       159946.57      43.025117      43.025117      86.403398          16000 
   3943000   3490.2269      302518.31      6695.639       300486.17      300009.2       307059.56      1281.279       808.51229      400.27779      7217.9046      11600.76       18818.665      159731.03      43.005781      43.005781      86.364568          16000 
   3944000   3529.8074      301145.46      6702.7408      297987.59      298842.7       306606.09      182.318        3442.7757     -1278.6568      7299.7584      11521.93       18821.688      159707.59      43.003678      43.003678      86.360344          16000 
   3945000   3531.4473      300668.65      6709.844       296784.87      297517.58      307703.49     -1118.1904     -3780.4751      4281.0719      7303.1497      11481.277      18784.426      159902.3       43.021147      43.021147      86.395425          16000 
   3946000   3522.6796      301041.66      6716.9479      296543.71      298920.95      307660.32     -2498.1581     -528.52398      1161.8448      7285.0178      11484.942      18769.96       159978.75      43.028002      43.028002      86.409191          16000 
   3947000   3507.0115      300748.18      6724.0584      300279.1       294495.76      307469.68     -2325.4223      1098.0617     -742.41207      7252.6158      11517.725      18770.341      159974.38      43.02761       43.02761       86.408405          16000 
   3948000   3525.8965      300936.44      6731.1597      297168.66      298763.68      306876.97     -1113.7162      1682.4126      2188.9379      7291.6706      11515.562      18807.232      159777.19      43.009924      43.009924      86.372887          16000 
   3949000   3558.6101      304448.86      6738.2627      301248.64      299423.49      312674.46      163.28122     -513.44738     -181.97243      7359.3233      11416.808      18776.132      159939.88      43.024516      43.024516      86.402192          16000 
   3950000   3533.1735      304898.61      6745.3654      298129.82      303295.82      313270.19     -1228.4107      6076.5282     -710.20444      7306.7195      11506.014      18812.733      159753.33      43.007783      43.007783      86.368587          16000 
   3951000   3553.8452      300369.88      6752.4665      295244.44      297490.9       308374.3       531.16427     -3600.6963      991.66602      7349.4694      11408.197      18757.667      160046.88      43.034109      43.034109      86.421456          16000 
   3952000   3550.0266      302488.96      6759.5659      297429.74      297029.12      313008.02      876.53057      12.254708      2403.4359      7341.5724      11470.75       18812.323      159751.44      43.007613      43.007613      86.368247          16000 
   3953000   3534.3823      300970.23      6766.6629      302435.59      295874.07      304601.03      1085.1407     -3216.1835     -2510.6096      7309.2194      11463.93       18773.15       159955.05      43.025877      43.025877      86.404924          16000 
   3954000   3516.3623      298847.16      6773.7611      296746.9       295929.01      303865.56      666.60485      2171.885      -1401.2656      7271.9535      11456.235      18728.188      160193.03      43.047204      43.047204      86.447753          16000 
   3955000   3504.4729      297477.57      6780.8617      293645.92      293027.65      305759.15      2514.8449     -2716.7714     -1875.0849      7247.3658      11472.871      18720.237      160231.97      43.050692      43.050692      86.454757          16000 
   3956000   3516.0899      298080.58      6787.9609      296391.33      291947.08      305903.33      395.70952      946.42061      1782.9918      7271.3902      11490.734      18762.124      160002.95      43.030171      43.030171      86.413549          16000 
   3957000   3516.0955      299607.27      6795.0612      294579.41      298709.24      305533.15      3242.0073     -1158.9382     -665.70758      7271.4017      11498.171      18769.573      159956.99      43.026051      43.026051      86.405274          16000 
   3958000   3515.353       298726.5       6802.1606      297215.31      291967.45      306996.75      491.64887      2751.3891     -2264.3543      7269.8663      11488.014      18757.881      160017.92      43.031513      43.031513      86.416243          16000 
   3959000   3525.4551      299707.19      6809.2609      294884.81      297588.72      306648.03     -1733.2437     -511.58305      769.60057      7290.7577      11501.394      18792.152      159832.29      43.014867      43.014867      86.382814          16000 
   3960000   3491.1242      297338.12      6816.3626      292038.44      296682.23      303293.71      1346.9277     -269.11344     -355.58045      7219.7602      11527.958      18747.718      160062.81      43.035537      43.035537      86.424324          16000 
   3961000   3511.0438      295551.45      6823.4683      293227.05      290228.25      303199.06      254.85514     -2201.7302     -1657.629       7260.9548      11494.944      18755.898      160018.22      43.03154       43.03154       86.416296          16000 
   3962000   3502.9442      298229.4       6830.5751      297503.3       294218.04      302966.86     -3490.6143      1829.4394     -2981.0629      7244.2045      11521.228      18765.432      159957.56      43.026102      43.026102      86.405377          16000 
   3963000   3535.4532      302899.84      6837.6819      298474.83      299263.64      310961.05      65.226894     -1341.4582      3348.2058      7311.4342      11491.279      18802.713      159753.36      43.007785      43.007785      86.368592          16000 
   3964000   3505.2877      296869.8       6844.7887      294910.16      291419.59      304279.66      3508.0045      3540.9758     -2088.1477      7249.0508      11481.441      18730.492      160135.43      43.042044      43.042044      86.437391          16000 
   3965000   3506.0294      297810.34      6851.8965      294562.26      292913.27      305955.5      -2731.8773     -1461.252      -1547.6999      7250.5847      11498.752      18749.336      160030.44      43.032635      43.032635      86.418496          16000 
   3966000   3472.9         302025.78      6859.0018      298930.65      294005.16      313141.52     -1236.0581     -14.369593      75.797993      7182.0719      11600.734      18782.805      159847.75      43.016254      43.016254      86.385599          16000 
   3967000   3515.4597      298749.66      6866.103       297918.71      292939.7       305390.57     -938.85666     -106.34859      1061.6299      7270.0868      11486.3        18756.386      159987.64      43.028799      43.028799      86.410792          16000 
   3968000   3535.1121      302353.8       6873.2082      300850.46      297885.2       308325.73      1295.989       220.19478      885.30654      7310.7287      11508.928      18819.656      159648.24      42.99835       42.99835       86.349644          16000 
   3969000   3518.962       303741.65      6880.3097      301815.69      300655.09      308754.18     -979.97415      924.35137      2578.1896      7277.3298      11516.023      18793.353      159785.48      43.010668      43.010668      86.374381          16000 
   3970000   3535.3854      299602.73      6887.4137      296481.96      298445.55      303880.68      918.55428     -662.02858     -527.10546      7311.2939      11442.862      18754.156      159992.01      43.029191      43.029191      86.411579          16000 
   3971000   3532.3733      299645.07      6894.522       296608.94      296115.45      306210.82     -2919.4278      5004.7873      997.94416      7305.0647      11484.55       18789.615      159803.24      43.012261      43.012261      86.37758           16000 
   3972000   3510.4984      299853.71      6901.6219      293581.13      300914.16      305065.84      2182.2377     -2345.2645     -723.92293      7259.8268      11492.5        18752.327      159997.85      43.029714      43.029714      86.412631          16000 
   3973000   3489.4651      299986.02      6908.7209      294192.82      295640.29      310124.94      1537.0844      5354.4231      1238.9318      7216.3291      11561.877      18778.206      159857.64      43.017141      43.017141      86.387381          16000 
   3974000   3492.6287      296439.79      6915.8232      293705.25      290527.93      305086.19     -874.4235      -5219.2026      1456.6972      7222.8716      11533.238      18756.109      159963.5       43.026635      43.026635      86.406447          16000 
   3975000   3481.4128      294283.33      6922.9262      288962.08      291331.63      302556.28     -1855.9982      873.98847      2417.558       7199.6768      11521.558      18721.234      160150.46      43.043391      43.043391      86.440095          16000 
   3976000   3542.7284      297586.69      6930.025       294380.16      294644.37      303735.53      1534.1852     -1081.8651     -985.3364       7326.4795      11400.654      18727.133      160114.79      43.040195      43.040195      86.433677          16000 
   3977000   3502.492       295289.87      6937.1248      295110.55      291166.43      299592.64     -2235.1837     -2231.513      -1097.9138      7243.2693      11483.287      18726.556      160112.69      43.040007      43.040007      86.4333            16000 
   3978000   3527.269       296821.14      6944.2231      292974.42      294394.25      303094.74      511.73048      1645.6508     -530.09154      7294.5089      11445.915      18740.424      160034.44      43.032994      43.032994      86.419217          16000 
   3979000   3510.441       298447.13      6951.3221      296333.97      293980.03      305027.39     -1862.6913      3786.8058      3181.6236      7259.708       11477.164      18736.872      160044.97      43.033938      43.033938      86.421112          16000 
   3980000   3492.489       295224.12      6958.4204      292928.34      292729.09      300014.93     -863.55931     -1943.466       486.34376      7222.5826      11481.4        18703.983      160220.5       43.049665      43.049665      86.452695          16000 
   3981000   3533.9853      299692.08      6965.5245      297916.24      296345.53      304814.46     -1829.4449     -51.81834       696.95695      7308.3985      11437.764      18746.162      159993.62      43.029335      43.029335      86.411869          16000 
   3982000   3511.3123      305946.94      6972.6252      303678.05      304358.27      309804.52     -848.90383     -4419.5767      825.91552      7261.5099      11512.717      18774.227      159845.04      43.016011      43.016011      86.385111          16000 
   3983000   3534.8607      305873.11      6979.723       305071.53      299377.29      313170.5       2391.2571      1465.415       2887.9642      7310.2088      11506.664      18816.873      159612.12      42.995107      42.995107      86.343131          16000 
   3984000   3520.1646      299984.88      6986.8249      295931.95      298109.57      305913.12      718.31157     -3666.4682     -222.24111      7279.8169      11439.961      18719.778      160130.45      43.041598      43.041598      86.436495          16000 
   3985000   3524.5621      299291.29      6993.9243      294743.21      297182.38      305948.27     -1987.8432      3991.8553      2319.3877      7288.9109      11455.72       18744.631      159997.27      43.029662      43.029662      86.412525          16000 
   3986000   3524.904       298940.5       7001.029       296339.6       293426.05      307055.86     -402.31689      1845.5089      188.21413      7289.6181      11436.366      18725.984      160095.59      43.038474      43.038474      86.430222          16000 
   3987000   3537.5242      302085.16      7008.1329      298625.64      299866.92      307762.92      936.80805     -4454.9486     -878.09729      7315.7171      11418.723      18734.44       160047.25      43.034142      43.034142      86.421522          16000 
   3988000   3490.3184      299396.08      7015.2387      295364.08      295881.36      306942.79      1241.6904      1491.7202     -1234.8885      7218.0938      11491.175      18709.269      160177.84      43.045843      43.045843      86.445021          16000 
   3989000   3539.9111      295106.56      7022.3404      289446.31      291842         304031.38     -1855.7948      1866.1057      1715.0816      7320.6531      11365.049      18685.703      160298.86      43.056682      43.056682      86.466787          16000 
   3990000   3515.4434      302052.56      7029.4408      303721.14      296153.1       306283.45      489.56073      3657.8117     -4188.606       7270.0531      11480.67       18750.724      159950.22      43.025444      43.025444      86.404055          16000 
   3991000   3511.0232      301455.14      7036.5475      296233.85      299053.2       309078.36     -1558.8688      2443.8378      2378.0522      7260.912       11514.102      18775.014      159816.32      43.013435      43.013435      86.379938          16000 
   3992000   3502.1529      295545.95      7043.6544      292786.84      291996.09      301854.93     -1162.8023     -3152.7921     -5069.7184      7242.5679      11436.382      18678.95       160319.96      43.058571      43.058571      86.470581          16000 
   3993000   3508.6564      302539.65      7050.7562      299929.32      298076.85      309612.79      455.89094     -3386.9764      4505.2845      7256.0174      11512.461      18768.478      159841.23      43.015669      43.015669      86.384425          16000 
   3994000   3499.3804      299970.31      7057.8638      295979.78      297368.93      306562.22     -738.59303      2695.1246     -662.93518      7236.8344      11480.698      18717.532      160104.72      43.039293      43.039293      86.431866          16000 
   3995000   3533.2499      298751.92      7064.9684      296381.36      294961.04      304913.37      350.99319     -1296.8054      1115.0573      7306.8777      11443.609      18750.486      159927.34      43.023392      43.023392      86.399934          16000 
   3996000   3511.5929      299963.19      7072.0712      298226.54      296251.81      305411.22     -459.87204     -59.502182     -186.15952      7262.0902      11458.777      18720.867      160080.75      43.037145      43.037145      86.427552          16000 
   3997000   3523.6926      296100.74      7079.178       291561.89      292045.99      304694.35      2277.7087     -437.74953      2500.0098      7287.1129      11403.149      18690.262      160244.36      43.051802      43.051802      86.456987          16000 
   3998000   3510.0179      300044.37      7086.2809      296219.09      296450.17      307463.84     -1496.5956     -2619.9608     -2077.3245      7258.833       11472.39       18731.223      160025.44      43.032187      43.032187      86.417596          16000 
   3999000   3496.2342      301670.13      7093.3802      298099.62      296428.73      310482.04     -2111.5193      662.32045      2532.2826      7230.328       11496.734      18727.062      160046.07      43.034036      43.034036      86.42131           16000 
   4000000   3518.3793      300231.6       7100.4892      297617.98      298141.33      304935.49     -992.61813      1117.4082     -1643.0204      7276.1247      11454.362      18730.486      160025.32      43.032177      43.032177      86.417575          16000 
Loop time of 7100.49 on 8 procs for 1000000 steps with 16000 atoms

Performance: 6.084 ns/day, 3.945 hours/ns, 140.835 timesteps/s
58.6% CPU use with 1 MPI tasks x 8 OpenMP threads

MPI task timing breakdown:
Section |  min time  |  avg time  |  max time  |%varavg| %total
---------------------------------------------------------------
Pair    | 6804.4     | 6804.4     | 6804.4     |   0.0 | 95.83
Neigh   | 11.539     | 11.539     | 11.539     |   0.0 |  0.16
Comm    | 41.744     | 41.744     | 41.744     |   0.0 |  0.59
Output  | 3.881      | 3.881      | 3.881      |   0.0 |  0.05
Modify  | 212.63     | 212.63     | 212.63     |   0.0 |  2.99
Other   |            | 26.28      |            |       |  0.37

Nlocal:          16000 ave       16000 max       16000 min
Histogram: 1 0 0 0 0 0 0 0 0 0
Nghost:          14303 ave       14303 max       14303 min
Histogram: 1 0 0 0 0 0 0 0 0 0
Neighs:              0 ave           0 max           0 min
Histogram: 1 0 0 0 0 0 0 0 0 0
FullNghs:  1.46857e+06 ave 1.46857e+06 max 1.46857e+06 min
Histogram: 1 0 0 0 0 0 0 0 0 0

Total # of neighbors = 1468574
Ave neighs/atom = 91.785875
Neighbor list builds = 32015
Dangerous builds = 0
Total wall time: 7:15:21
