
atom_style atomic
units metal
boundary p p p
#atom_modify sort 0 0.0
newton on

read_data data.lammps
Reading data file ...
  triclinic box = (0 0 0) to (4.3790145 4.3790145 4.3790145) with tilt (-0 0 0)
  1 by 1 by 1 MPI processor grid
  reading atoms ...
  8 atoms
  read_data CPU = 0.002 seconds
replicate 10 10 20
Replicating atoms ...
  triclinic box = (0 0 0) to (43.790145 43.790145 87.58029) with tilt (-0 0 0)
  1 by 1 by 1 MPI processor grid
  16000 atoms
  replicate CPU = 0.009 seconds

### interactions

pair_style flare
pair_coeff * * lmp.flare
Reading potential file lmp.flare with DATE: Thu

# compute unc all flare/std/atom L_inv_lmp.flare sparse_desc_lmp.flare
# compute MaxUnc all reduce max c_unc

mass 1 12.011000
mass 2 28.085000

thermo_style custom step temp press cpu pxx pyy pzz pxy pxz pyz ke pe etotal vol lx ly lz atoms    #c_MaxUnc
thermo 1000
timestep 0.0005
restart 100000 restart_*.dat

#################### Equilibrate at P and T_es ##############################
velocity all create $T 41928459 rot yes dist gaussian
velocity all create 3400 41928459 rot yes dist gaussian
fix mom all momentum 1000 linear 1 1 1 angular

fix 1 all npt temp $T $T $(100.0*dt) iso $P $P $(1000.0*dt)
fix 1 all npt temp 3400 $T $(100.0*dt) iso $P $P $(1000.0*dt)
fix 1 all npt temp 3400 3400 $(100.0*dt) iso $P $P $(1000.0*dt)
fix 1 all npt temp 3400 3400 0.050000000000000002776 iso $P $P $(1000.0*dt)
fix 1 all npt temp 3400 3400 0.050000000000000002776 iso 600000 $P $(1000.0*dt)
fix 1 all npt temp 3400 3400 0.050000000000000002776 iso 600000 600000 $(1000.0*dt)
fix 1 all npt temp 3400 3400 0.050000000000000002776 iso 600000 600000 0.5
dump 1 all custom 1000 1equil.bin id type x y z vx vy vz
run   10000 # report performance
Neighbor list info ...
  update every 1 steps, delay 10 steps, check yes
  max neighbors/atom: 2000, page size: 100000
  master list distance cutoff = 6
  ghost atom cutoff = 6
  binsize = 6, bins = 8 8 15
  1 neighbor lists, perpetual/occasional/extra = 1 0 0
  (1) pair flare/kk, perpetual
      attributes: full, newton on, kokkos_device
      pair build: full/bin/kk/device
      stencil: full/bin/3d
      bin: kk/device
Per MPI rank memory allocation (min/avg/max) = 15.9 | 15.9 | 15.9 Mbytes
   Step          Temp          Press           CPU            Pxx            Pyy            Pzz            Pxy            Pxz            Pyz           KinEng         PotEng         TotEng         Volume           Lx             Ly             Lz          Atoms   
         0   3400           63428.998      0              63090.392      63583.36       63613.243     -471.7975       212.49693     -533.43026      7031.3124     -4109.4047      2921.9077      167941.93      43.790145      43.790145      87.58029           16000 
      1000   3440.2439      599084.33      6.5155251      599039.79      598796.64      599416.55      1859.4604      1800.2455     -2545.9339      7114.538       7323.1249      14437.663      142320.47      41.439304      41.439304      82.878609          16000 
      2000   3395.8813      600284.76      13.002188      601354.84      599549.68      599949.76     -1786.9153      100.82999     -1694.1758      7022.7948      7002.6015      14025.396      142103.34      41.41822       41.41822       82.836441          16000 
      3000   3407.9994      600628.56      19.490492      601068.22      600973.28      599844.16     -1636.872       3133.3072      3145.1266      7047.8554      7228.2597      14276.115      142084.51      41.416391      41.416391      82.832781          16000 
      4000   3414.7646      599898.78      25.980075      599767.85      599376.68      600551.8       976.2139       2071.7156      212.95477      7061.846       7076.3038      14138.15       142050.55      41.413091      41.413091      82.826181          16000 
      5000   3407.678       599324.61      32.467156      597695.5       600950.77      599327.56      196.09953     -77.950575      2397.7917      7047.1907      7186.239       14233.43       142054.62      41.413486      41.413486      82.826972          16000 
      6000   3400.633       600116.48      38.957717      601621.57      598405.29      600322.59     -709.72555      430.66581     -2242.9573      7032.6215      7186.775       14219.396      142050.45      41.413081      41.413081      82.826162          16000 
      7000   3404.5431      599678.74      45.444477      598347.37      599649.17      601039.67      1276.3618      1103.184      -1294.4753      7040.7077      7129.821       14170.529      142059.88      41.413997      41.413997      82.827993          16000 
      8000   3404.2304      600585.92      51.931189      600959.41      600982.88      599815.48     -4765.0344      2133.5327      134.17268      7040.061       7230.3639      14270.425      142011.04      41.409251      41.409251      82.818501          16000 
      9000   3395.5144      598822.07      58.417826      600612.57      598397.13      597456.5       906.77114     -1148.6674     -1498.5816      7022.0361      7099.7836      14121.82       142039.64      41.41203       41.41203       82.824061          16000 
     10000   3398.2948      601477.84      64.900756      603992.21      600144.18      600297.13      868.90649      349.04259      4244.3022      7027.786       7210.9469      14238.733      142083.35      41.416277      41.416277      82.832555          16000 
Loop time of 64.9008 on 8 procs for 10000 steps with 16000 atoms

Performance: 6.656 ns/day, 3.606 hours/ns, 154.081 timesteps/s
61.2% CPU use with 1 MPI tasks x 8 OpenMP threads

MPI task timing breakdown:
Section |  min time  |  avg time  |  max time  |%varavg| %total
---------------------------------------------------------------
Pair    | 61.895     | 61.895     | 61.895     |   0.0 | 95.37
Neigh   | 0.10184    | 0.10184    | 0.10184    |   0.0 |  0.16
Comm    | 0.35022    | 0.35022    | 0.35022    |   0.0 |  0.54
Output  | 0.01445    | 0.01445    | 0.01445    |   0.0 |  0.02
Modify  | 2.2683     | 2.2683     | 2.2683     |   0.0 |  3.49
Other   |            | 0.2706     |            |       |  0.42

Nlocal:          16000 ave       16000 max       16000 min
Histogram: 1 0 0 0 0 0 0 0 0 0
Nghost:          13866 ave       13866 max       13866 min
Histogram: 1 0 0 0 0 0 0 0 0 0
Neighs:              0 ave           0 max           0 min
Histogram: 1 0 0 0 0 0 0 0 0 0
FullNghs:  1.62113e+06 ave 1.62113e+06 max 1.62113e+06 min
Histogram: 1 0 0 0 0 0 0 0 0 0

Total # of neighbors = 1621134
Ave neighs/atom = 101.32088
Neighbor list builds = 249
Dangerous builds = 0
run  990000
Per MPI rank memory allocation (min/avg/max) = 16.2 | 16.2 | 16.2 Mbytes
   Step          Temp          Press           CPU            Pxx            Pyy            Pzz            Pxy            Pxz            Pyz           KinEng         PotEng         TotEng         Volume           Lx             Ly             Lz          Atoms   
     10000   3398.2948      601477.84      0              603992.21      600144.18      600297.13      868.90649      349.04259      4244.3022      7027.786       7210.9469      14238.733      142083.35      41.416277      41.416277      82.832555          16000 
     11000   3418.1528      606902.17      6.484097       607715.71      607983.94      605006.87     -3628.976       2117.8771      83.562195      7068.8531      7177.1606      14246.014      141809.91      41.389692      41.389692      82.779383          16000 
     12000   3394.9926      591319.26      12.967549      589617.06      591215.2       593125.52     -1196.4117      2436.5116      2341.5173      7020.957       7100.519       14121.476      142402.89      41.447302      41.447302      82.894605          16000 
     13000   3393.2472      602362.17      19.448633      601388.28      601678.92      604019.33     -3375.9211      2801.5954     -2076.8882      7017.3475      7218.7927      14236.14       141894.1       41.397882      41.397882      82.795763          16000 
     14000   3379.3848      599392.13      25.931396      600779.92      597628.7       599767.76      1858.2034      237.54622      216.08577      6988.6794      7093.7965      14082.476      142039.84      41.412049      41.412049      82.824099          16000 
     15000   3415.352       601591.24      32.414339      598892.34      603522.59      602358.78     -1989.7014     -924.6562      -2346.6579      7063.0608      7114.3738      14177.435      141977.11      41.405952      41.405952      82.811904          16000 
     16000   3433.8297      597685.32      38.897256      597904.48      597467.83      597683.64     -1065.7452     -4121.8453      3925.4692      7101.2733      7157.1518      14258.425      142159.03      41.42363       41.42363       82.847259          16000 
     17000   3378.5444      604096.46      45.380708      603382.62      606266.21      602640.54     -1796.5802      3456.0865     -2650.4568      6986.9416      7270.4627      14257.404      141888.15      41.397303      41.397303      82.794606          16000 
     18000   3415.5695      596774.55      51.861383      596864.99      596581.1       596877.55      1827.897       1651.8405     -2042.7496      7063.5106      7169.6106      14233.121      142186.63      41.42631       41.42631       82.852621          16000 
     19000   3363.8751      597265.9       58.343277      597797.29      598506.17      595494.24      2122.7185      1004.0976      235.43345      6956.605       7099.2424      14055.847      142123.72      41.4202        41.4202        82.8404            16000 
     20000   3432.9943      603614.1       64.824677      601345.91      606161.55      603334.86     -2176.9644      783.7112      -1009.7937      7099.5457      7240.3636      14339.909      141935.49      41.401906      41.401906      82.803811          16000 
     21000   3408.9978      598191.87      71.306798      597721.81      598518.21      598335.61      2422.6308      904.69369      2220.8695      7049.9202      7122.6366      14172.557      142069.12      41.414895      41.414895      82.829789          16000 
     22000   3415.9536      600423.16      77.78781       600506.83      598256.94      602505.72     -197.04355     -3194.6757      1203.7896      7064.305       7129.5539      14193.859      142028.22      41.410921      41.410921      82.821842          16000 
     23000   3426.0868      599797.06      84.269285      599600.3       601158.52      598632.37     -2555.7375     -522.83544      2765.5912      7085.2609      7257.5799      14342.841      142082.29      41.416175      41.416175      82.83235           16000 
     24000   3399.7605      600246.09      90.761274      600652.33      600148.29      599937.65     -133.0887      -503.30181      1334.2528      7030.817       7124.5125      14155.33       142035.47      41.411625      41.411625      82.823249          16000 
     25000   3423.737       598898.12      97.240375      598839.39      598420.4       599434.57      1967.4532      927.02489      283.4712       7080.4013      7150.8271      14231.228      142159.81      41.423706      41.423706      82.847411          16000 
     26000   3369.2564      593766.04      103.72027      593760.71      591475.33      596062.07      135.13444      817.07921      3624.1104      6967.7337      7000.0971      13967.831      142268.92      41.434301      41.434301      82.868602          16000 
     27000   3447.5865      605045.02      110.20144      605185.84      604684.09      605265.13      3555.8128     -1433.3646     -2195.2507      7129.7229      7189.0197      14318.743      141896.68      41.398132      41.398132      82.796264          16000 
     28000   3385.0289      598347.95      116.68352      598176.67      597958.6       598908.59      1573.8787     -1981.9378     -145.81683      7000.3516      7101.8761      14102.228      142077.36      41.415696      41.415696      82.831392          16000 
     29000   3409.1492      599994.49      123.16625      600001.92      599088.87      600892.67      3557.0081      6261.3771      4067.4304      7050.2333      7173.3847      14223.618      142052.92      41.413321      41.413321      82.826642          16000 
     30000   3412.5975      599421.11      129.64526      599847.62      597847.67      600568.05     -947.51776     -3791.0662      4499.4971      7057.3645      7125.1394      14182.504      141990.07      41.407212      41.407212      82.814424          16000 
     31000   3395.7684      601332.07      136.12492      600111.09      601933.49      601951.62      4700.9121     -2326.2128      773.12049      7022.5613      7182.9288      14205.49       141968.05      41.405072      41.405072      82.810143          16000 
     32000   3412.388       601981.22      142.60645      602051.59      602302.98      601589.08     -1060.155      -2145.8464     -3038.3278      7056.9312      7131.2469      14188.178      141926.11      41.400994      41.400994      82.801987          16000 
     33000   3417.4293      597383.25      149.08459      596266.3       596489.4       599394.06      1839.2195      1174.6052      4345.7489      7067.3568      7204.5713      14271.928      142228.55      41.430381      41.430381      82.860762          16000 
     34000   3382.4849      606619.08      155.56686      606683.76      607628.83      605544.65      3859.3875     -1966.5742     -404.79732      6995.0906      7287.3656      14282.456      141786.92      41.387455      41.387455      82.774911          16000 
     35000   3436.0128      597345.49      162.04958      598488.79      597617.55      595930.14      1709.4178     -4383.5907      1428.884       7105.788       7067.8038      14173.592      142152.03      41.42295       41.42295       82.8459            16000 
     36000   3405.1644      598283.43      168.5287       595969.04      598055.71      600825.53      519.21674      19.836386      872.61365      7041.9926      7233.6738      14275.666      142099.9       41.417886      41.417886      82.835771          16000 
     37000   3388.3875      603603.02      175.0097       603335.84      604284.7       603188.52      4277.8382     -396.6555      -3494.8524      7007.2973      7192.1871      14199.484      141929.54      41.401328      41.401328      82.802655          16000 
     38000   3420.5093      598322.31      181.48801      598710.17      599246.56      597010.21     -321.7242      -2762.7873     -443.83503      7073.7262      7125.0044      14198.731      142143.07      41.42208       41.42208       82.84416           16000 
     39000   3418.2838      603296.35      187.96597      604191.25      601472.5       604225.3      -3561.635      -458.2313       2784.3697      7069.1239      7155.9815      14225.105      141922.39      41.400633      41.400633      82.801265          16000 
     40000   3391.9424      595967.22      194.44656      596617.92      596670.95      594612.78      6870.3218     -377.19819      5619.6737      7014.649       7058.1628      14072.812      142172.27      41.424916      41.424916      82.849831          16000 
     41000   3422.6565      605291.16      200.92594      606153.12      603985.07      605735.28     -2586.6635     -2713.8563      3055.902       7078.1668      7217.4599      14295.627      141877.3       41.396247      41.396247      82.792494          16000 
     42000   3351.5662      598964.94      207.40289      598980.19      601031.04      596883.58      4776.745      -3653.1358     -2537.1836      6931.1496      7150.5272      14081.677      142041.59      41.412219      41.412219      82.824439          16000 
     43000   3422.0742      598283.01      213.88223      597766.15      597500.9       599581.98      1220.2749      873.06152      285.48503      7076.9626      7201.1457      14278.108      142092.22      41.41714       41.41714       82.83428           16000 
     44000   3370.2297      601580.17      220.36106      602599.74      599569.24      602571.54      1406.7551     -2764.0401      1045.1217      6969.7465      7221.8157      14191.562      141968.29      41.405095      41.405095      82.81019           16000 
     45000   3389.1681      593347.83      226.84054      594539.01      593382.16      592122.32      207.50286      584.70089      67.401086      7008.9117      7165.7096      14174.621      142225.33      41.430069      41.430069      82.860137          16000 
     46000   3404.6051      604136.51      233.32115      602502.65      602698.8       607208.08     -2696.1828      1638.9008     -1069.1763      7040.8358      7184.723       14225.559      141868.71      41.395412      41.395412      82.790825          16000 
     47000   3421.225       599243.89      239.80035      600070.03      598638.43      599023.2       1658.5539      3914.8612     -1808.8075      7075.2065      7121.2774      14196.484      142046         41.412648      41.412648      82.825296          16000 
     48000   3420.6312      596020.38      246.27804      596798.47      595387.71      595874.96     -3274.4652     -1754.0993     -396.55786      7073.9784      7176.9284      14250.907      142235.97      41.431101      41.431101      82.862203          16000 
     49000   3371.0241      606453.11      252.75798      606228.81      606820.7       606309.83      2906.1505     -2946.4758      2530.1082      6971.3893      7278.9122      14250.301      141812.83      41.389976      41.389976      82.779953          16000 
     50000   3413.6861      596483.95      259.23622      597257.41      596046.38      596148.05     -1882.8425     -2561.1029      237.93386      7059.6156      7135.3242      14194.94       142180.67      41.425732      41.425732      82.851464          16000 
     51000   3402.6293      601280.28      265.71556      600044.89      603868.6       599927.35      641.14232     -2926.6688      1487.6329      7036.75        7141.3619      14178.112      142026.46      41.410749      41.410749      82.821499          16000 
     52000   3434.6019      603035.71      272.19354      604154.73      601640.27      603312.14     -3535.1893      5885.1214     -1698.5032      7102.8703      7195.381       14298.251      142003.67      41.408534      41.408534      82.817068          16000 
     53000   3401.0926      594560.99      278.66949      593525.06      593997.38      596160.54     -1103.0014     -622.80618      1689.1239      7033.5719      7086.1416      14119.713      142260.72      41.433505      41.433505      82.867009          16000 
     54000   3366.6119      607118.21      285.14812      607056.92      608313.93      605983.77     -1714.9611     -971.99513     -118.14835      6962.2646      7208.9942      14171.259      141782.41      41.387017      41.387017      82.774033          16000 
     55000   3401.9749      595370.46      291.62451      594048.14      593758.57      598304.68      448.50561     -1390.1421      245.59835      7035.3966      7148.0039      14183.401      142207.69      41.428356      41.428356      82.856712          16000 
     56000   3410.4064      600633.19      298.10154      601465.33      600912.36      599521.9       1766.8475     -1013.771       1015.4415      7052.8333      7255.3401      14308.173      142028.87      41.410984      41.410984      82.821967          16000 
     57000   3378.3006      600372.57      304.57957      598644.79      602386.6       600086.32      451.33017      464.88555      1780.3313      6986.4374      7174.954       14161.391      142028.38      41.410936      41.410936      82.821872          16000 
     58000   3385.1151      597188.42      311.05744      597023.35      597659.59      596882.31     -1118.469       2362.3865      2116.6933      7000.53        7141.2028      14141.733      142097.96      41.417697      41.417697      82.835394          16000 
     59000   3410.6538      609056.67      317.5348       608628.63      610448.66      608092.71      4341.7916      169.45628     -3092.3994      7053.3448      7283.0682      14336.413      141740.61      41.382949      41.382949      82.765898          16000 
     60000   3388.2149      592776.1       324.01286      592276.9       592818.87      593232.52     -3703.1116      1731.7051      1672.7399      7006.9404      7086.3546      14093.295      142329.15      41.440147      41.440147      82.880294          16000 
     61000   3408.793       602626.84      330.48908      602862.39      602310.81      602707.31      499.34438     -2765.3656     -519.3028       7049.4966      7197.7093      14247.206      142031.02      41.411193      41.411193      82.822385          16000 
     62000   3422.1728      602268.13      336.96736      603479.15      601606.32      601718.92     -219.18044     -2356.3042     -1120.2663      7077.1666      7238.5272      14315.694      142034.84      41.411564      41.411564      82.823127          16000 
     63000   3405.1872      598281.9       343.44605      596577.22      598387.58      599880.9      -2158.4819     -1661.0494      3102.7403      7042.0397      7146.0141      14188.054      142124.15      41.420241      41.420241      82.840483          16000 
     64000   3392.9269      603038.55      349.92411      603224.14      605730.55      600160.97     -1546.8017      129.20139      1608.9384      7016.685       7224.7349      14241.42       142001.13      41.408288      41.408288      82.816576          16000 
     65000   3441.8004      599480.77      356.4027       598604.72      598995.65      600841.95     -1038.7369     -746.94986      2621.2284      7117.7571      7096.867       14214.624      142108.32      41.418704      41.418704      82.837407          16000 
     66000   3359.8868      602300.65      362.88099      601559.61      604005.94      601336.4       3005.6223      1781.858      -528.37051      6948.357       7180.0838      14128.441      141920.38      41.400437      41.400437      82.800874          16000 
     67000   3412.5222      603397.07      369.35893      603785.55      602649.01      603756.65     -2097.7759     -3641.5885      3254.0187      7057.2087      7231.3733      14288.582      141908.5       41.399282      41.399282      82.798564          16000 
     68000   3352.5683      595772.57      375.83631      596525.04      596466.77      594325.9      -458.86818     -993.83055      36.85936       6933.2221      7145.4931      14078.715      142167.71      41.424473      41.424473      82.848946          16000 
     69000   3425.0831      602117.82      382.31659      600815.16      603418.62      602119.69     -1574.4435     -872.04491     -3705.0622      7083.185       7148.6475      14231.832      141967.9       41.405057      41.405057      82.810114          16000 
     70000   3405.1703      598976         388.79814      597577.77      598304.47      601045.77      2326.3892     -110.11693     -1149.304       7042.0047      7149.9415      14191.946      142088.66      41.416794      41.416794      82.833587          16000 
     71000   3409.4557      599230.57      395.27946      599793.54      599565.85      598332.33     -353.98539      3619.9842      1813.6963      7050.8671      7077.51        14128.377      142106.34      41.418512      41.418512      82.837024          16000 
     72000   3406.3201      598810.5       401.76003      601189.03      598272.96      596969.52     -448.45911      797.17125      1584.4216      7044.3826      7182.2862      14226.669      142119.21      41.419762      41.419762      82.839523          16000 
     73000   3387.5471      603888         408.23945      606481.89      601904.01      603278.1       853.47167     -2201.8726      1303.7815      7005.5594      7178.1276      14183.687      141988.68      41.407077      41.407077      82.814154          16000 
     74000   3414.1465      591869.6       414.71833      590355.39      592485.68      592767.73     -2149.8875      2434.7849     -1502.7491      7060.5678      7143.4555      14204.023      142397.1       41.44674       41.44674       82.893481          16000 
     75000   3355.9864      604778.69      421.19838      604572.56      604419.14      605344.39     -2938.2268      5547.4318     -1894.988       6940.2907      7316.2         14256.491      141884.91      41.396988      41.396988      82.793975          16000 
     76000   3393.6536      599399.5       427.68278      598745.27      599524.92      599928.3      -2973.9471     -203.2315       1906.4247      7018.1879      7173.2106      14191.399      142076.62      41.415624      41.415624      82.831248          16000 
     77000   3381.7164      599344.8       434.16657      598056.99      600141.71      599835.7       1034.0774      2109.0311      1154.0683      6993.5013      7154.7871      14148.288      142031.18      41.411208      41.411208      82.822416          16000 
     78000   3422.862       601676.91      440.6478       603260.48      599656.99      602113.25     -1595.5423     -2443.2702      1358.9546      7078.5917      7262.5641      14341.156      142050.31      41.413067      41.413067      82.826134          16000 
     79000   3396.9408      598426.89      447.13054      599027.91      599458.17      596794.58      4020.3405     -700.7059       880.10393      7024.9859      7106.9853      14131.971      142075.59      41.415524      41.415524      82.831048          16000 
     80000   3442.6263      598896.01      453.61512      600179.11      597569.08      598939.85     -156.23941     -117.04046      54.952558      7119.4651      7188.5831      14308.048      142097.96      41.417697      41.417697      82.835394          16000 
     81000   3423.6056      600885.04      460.09767      600983.22      600062.38      601609.52     -1390.6661     -1948.5973     -542.99131      7080.1295      7087.53        14167.66       141965.63      41.404836      41.404836      82.809672          16000 
     82000   3403.6828      596333.92      466.58695      596399.13      594800.47      597802.15     -240.14705      528.11419      658.56395      7038.9287      7111.9903      14150.919      142181.99      41.42586       41.42586       82.851721          16000 
     83000   3363.8775      613388.97      473.07945      612872.31      611784.81      615509.79     -404.75384      827.49568     -1214.6424      6956.6098      7313.5369      14270.147      141552.52      41.364636      41.364636      82.729272          16000 
     84000   3398.9097      595240.06      479.57025      596835.24      593886.7       594998.23      346.61555     -880.87158     -4609.699       7029.0575      7180.8728      14209.93       142197.51      41.427367      41.427367      82.854733          16000 
     85000   3362.6495      601050.05      486.07264      600563.16      601616.63      600970.36     -2988.7888     -1214.2154      3202.8784      6954.0704      7180.1954      14134.266      141954.87      41.403791      41.403791      82.807581          16000 
     86000   3436.6016      600659.15      492.57408      600535.18      600546.5       600895.77     -4512.3665     -1981.2688      1732.967       7107.0058      7148.7552      14255.761      142032.94      41.411379      41.411379      82.822758          16000 
     87000   3376.2667      597924.81      499.07604      595544.77      599678.24      598551.42     -441.31789      1282.7753     -614.17993      6982.2311      7187.3547      14169.586      142094.77      41.417387      41.417387      82.834774          16000 
     88000   3419.3417      602001.62      505.58332      602397.82      601953.66      601653.39     -3883.8816      535.92722     -1286.2581      7071.3117      7193.4895      14264.801      141994.98      41.40769       41.40769       82.81538           16000 
     89000   3390.9406      597904.96      512.09235      598056.96      598505.17      597152.76      3253.7362     -4995.51       -3108.5725      7012.5772      7131.3534      14143.931      142114.14      41.41927       41.41927       82.838539          16000 
     90000   3410.4281      604413.81      518.60456      603215.45      605734.88      604291.09      527.66536     -1523.1939      3700.386       7052.8781      7206.9512      14259.829      141892.88      41.397762      41.397762      82.795525          16000 
     91000   3372.5129      599248.65      525.11384      599699.91      598395.04      599651.01      1427.4721     -1241.4154     -2889.1671      6974.4682      7089.5407      14064.009      142058.51      41.413864      41.413864      82.827728          16000 
     92000   3370.0387      597215.33      531.62184      599962.41      597583.45      594100.14     -993.70215     -648.90499      1558.0237      6969.3515      7167.5921      14136.944      142149.06      41.422662      41.422662      82.845323          16000 
     93000   3366.1891      601640.15      538.12108      601461.38      601817.72      601641.37     -1134.9417     -2529.9659     -2749.2676      6961.3903      7262.6358      14224.026      141976.5       41.405893      41.405893      82.811786          16000 
     94000   3398.401       600234.44      544.62939      599667.52      600723.72      600312.07      2604.9553     -1892.7691     -962.11803      7028.0056      7078.6519      14106.658      142088.13      41.416742      41.416742      82.833485          16000 
     95000   3410.0368      601617.78      551.13819      601674.68      601895.12      601283.56     -3505.4197      4960.2164     -896.8453       7052.0689      7257.6432      14309.712      142024.23      41.410532      41.410532      82.821065          16000 
     96000   3419.7475      599805.39      557.64875      600560.14      598092.3       600763.73      3420.102       2787.7747      2370.0531      7072.151       7110.5306      14182.682      142037.32      41.411804      41.411804      82.823609          16000 
     97000   3432.7446      592220.29      564.15825      590729.95      593316.8       592614.13     -606.7542       3814.6676      2774.6726      7099.0292      7110.6227      14209.652      142316.3       41.4389        41.4389        82.877799          16000 
     98000   3420.6086      607280.54      570.66589      605167.05      610216.44      606458.13     -129.75318     -1036.5935      4190.6921      7073.9317      7195.1937      14269.125      141787.01      41.387464      41.387464      82.774928          16000 
     99000   3416.0355      595861.58      577.17502      596607.04      596501.99      594475.7       4146.8963      2881.0367      2301.6524      7064.4744      7175.3004      14239.775      142244.72      41.431951      41.431951      82.863902          16000 
    100000   3359.8675      600640.04      583.68267      599462.39      599675.67      602782.04      1099.1903     -210.90339      1538.8047      6948.3172      7229.2277      14177.545      142012.59      41.409402      41.409402      82.818803          16000 
    101000   3386.9965      600614.83      590.17921      600514.9       599727.66      601601.92      574.69818      3682.1587      1465.7896      7004.4207      7260.9195      14265.34       142013.87      41.409526      41.409526      82.819051          16000 
    102000   3357.5776      598133.59      596.67658      597941.4       598144.29      598315.06      4887.1789      333.03199     -1518.1169      6943.5816      7164.86        14108.442      142091.56      41.417075      41.417075      82.834151          16000 
    103000   3433.8595      603937.36      603.16378      602481.28      603361.15      605969.65     -3222.4313      2773.9015      2407.627       7101.335       7163.198       14264.533      141945.61      41.40289       41.40289       82.80578           16000 
    104000   3392.6775      595599.34      609.65021      592280.54      596805.02      597712.45     -2258.2998      793.84949     -2573.8481      7016.1692      7202.3392      14218.508      142160.35      41.423758      41.423758      82.847517          16000 
    105000   3368.7012      599030.07      616.13863      597931.12      599413.93      599745.16     -1372.1868      394.78195      3519.422       6966.5855      7142.8415      14109.427      142074.07      41.415376      41.415376      82.830752          16000 
    106000   3374.3228      604650.06      622.62268      604334.71      605437.15      604178.34      1357.5501     -1296.6022      2641.2106      6978.211       7327.1617      14305.373      141866.62      41.395209      41.395209      82.790418          16000 
    107000   3390.1761      596252.98      629.10829      595078.6       594745.63      598934.73     -4220.6405     -1599.7425     -405.76735      7010.9962      7061.5998      14072.596      142119.18      41.419758      41.419758      82.839517          16000 
    108000   3387.5332      601924.79      635.5933       603301.96      601455.98      601016.42     -2533.8025     -662.31863      131.88914      7005.5307      7231.0984      14236.629      141988.19      41.40703       41.40703       82.81406           16000 
    109000   3366.6172      600101.3       642.07523      601794.33      598483.9       600025.68     -2187.4518     -1652.6441     -451.75404      6962.2756      7127.4632      14089.739      141999.43      41.408122      41.408122      82.816244          16000 
    110000   3388.8047      596172.25      648.5562       595683.97      596355.35      596477.42     -1496.3574     -790.37286     -1561.9191      7008.1602      7112.153       14120.313      142145.61      41.422326      41.422326      82.844652          16000 
    111000   3458.426       606412.29      655.03994      607403.39      605383.2       606450.28     -1098.3916     -451.70399      1645.9035      7152.1394      7257.5888      14409.728      141811.1       41.389808      41.389808      82.779616          16000 
    112000   3370.2804      595155.11      661.51911      596068.97      597253.2       592143.17     -2210.8961      3036.3698     -1657.9715      6969.8512      7124.8085      14094.66       142233.74      41.430885      41.430885      82.86177           16000 
    113000   3399.3871      600764.21      667.99921      599791.18      600589.27      601912.2       1201.1264     -537.10556      3224.457       7030.045       7225.4133      14255.458      142062.65      41.414267      41.414267      82.828534          16000 
    114000   3376.2367      602071.74      674.48338      601883.46      602023.39      602308.36      2489.7837     -1242.0849     -1479.9506      6982.1691      7244.5865      14226.756      141988.19      41.40703       41.40703       82.81406           16000 
    115000   3379.0338      595035.66      680.96311      594872.93      595843.94      594390.1      -4729.6586      2038.6265     -1349.6854      6987.9537      7153.9268      14141.881      142246.94      41.432167      41.432167      82.864333          16000 
    116000   3409.3373      604707.66      687.44568      605110.36      604975.52      604037.12     -2530.4867     -621.24118      2892.9082      7050.6223      7264.7265      14315.349      141865.83      41.395131      41.395131      82.790263          16000 
    117000   3367.3604      596237.69      693.92824      596142.28      596523.52      596047.26     -4624.2493      1207.6683      975.6526       6963.8127      7138.8392      14102.652      142095.59      41.417467      41.417467      82.834934          16000 
    118000   3398.3526      599619.33      700.4088       600850.12      596977.2       601030.66     -1286.6641      1053.5228      1740.4102      7027.9055      7213.7979      14241.703      142052.88      41.413317      41.413317      82.826634          16000 
    119000   3377.6938      601860.14      706.89431      599654.19      601655.11      604271.11      122.89407     -3810.957      -324.95445      6985.1824      7168.0494      14153.232      141922.69      41.400661      41.400661      82.801323          16000 
    120000   3397.417       596343.34      713.37723      596109.27      595603.47      597317.28     -1223.0698      2485.7127     -2607.3979      7025.9707      7143.8851      14169.856      142208.88      41.428471      41.428471      82.856942          16000 
    121000   3363.8254      604047.81      719.86102      604718.74      604406.35      603018.34      2081.5826      4156.7178      1587.7486      6956.5021      7224.2627      14180.765      141888.7       41.397356      41.397356      82.794712          16000 
    122000   3402.5532      600781.49      726.34364      599611.45      600600.46      602132.58     -3436.1044     -191.80054     -3805.9763      7036.5924      7192.5646      14229.157      142010.09      41.409159      41.409159      82.818317          16000 
    123000   3391.9805      596009.63      732.82827      594472.47      596526.68      597029.73      123.40745      1347.6517     -429.50929      7014.7279      7082.1019      14096.83       142164.17      41.424129      41.424129      82.848259          16000 
    124000   3392.5451      604420.38      739.31994      603762.52      603422.64      606075.98     -5671.2306      2497.3049      1631.1484      7015.8954      7280.0372      14295.933      141820.92      41.390763      41.390763      82.781526          16000 
    125000   3368.0214      598481.25      745.81509      599260.53      598112.05      598071.16     -3433.7551     -759.9606      -1262.8193      6965.1795      7157.6017      14122.781      142101.73      41.418064      41.418064      82.836128          16000 
    126000   3361.5222      599724.61      752.32041      597399.04      602054.49      599720.3      -450.6159      -1519.9925      951.4584       6951.739       7164.4741      14116.213      142013.99      41.409537      41.409537      82.819074          16000 
    127000   3373.1853      605527.22      758.82777      604009         607859.5       604713.16      1419.1509      454.23448      2569.11        6975.8587      7289.5444      14265.403      141859.18      41.394485      41.394485      82.788969          16000 
    128000   3398.6467      595069.12      765.34149      596463.99      594431.58      594311.78      1551.6704      1962.3164     -313.06525      7028.5136      7179.1616      14207.675      142237.98      41.431297      41.431297      82.862595          16000 
    129000   3401.9635      602047.65      771.85063      602371.42      602947.78      600823.75      1164.6921     -2213.6132      1623.2555      7035.373       7131.0577      14166.431      141931.63      41.401531      41.401531      82.803061          16000 
    130000   3389.3449      602315.38      778.36433      602170.07      601924.9       602851.17      1788.8011      734.58768      4043.9131      7009.2773      7318.2647      14327.542      141950.9       41.403404      41.403404      82.806809          16000 
    131000   3386.1459      596745.92      784.88061      596088.28      596305.42      597844.05      1952.1455      1263.2817      181.59517      7002.6617      7126.5423      14129.204      142143.68      41.422139      41.422139      82.844278          16000 
    132000   3394.8022      606225.18      791.39372      608265.04      605026.51      605384         1398.4934      1853.5424      1694.5513      7020.5633      7199.1327      14219.696      141837.19      41.392346      41.392346      82.784691          16000 
    133000   3396.2089      595624.44      797.91166      594566.89      597377.67      594928.77     -1007.024      -646.22187      348.81569      7023.4723      7176.9168      14200.389      142212.88      41.42886       41.42886       82.85772           16000 
    134000   3376.5398      595508.2       804.42902      595838.25      595939.45      594746.89     -3237.7488      1288.9572     -739.70881      6982.796       7130.1273      14112.923      142145.53      41.422319      41.422319      82.844638          16000 
    135000   3370.9579      603570.87      810.94647      601935.73      606289.63      602487.26     -3889.8143     -426.89655     -4619.5226      6971.2524      7245.7919      14217.044      141948.59      41.40318       41.40318       82.806359          16000 
    136000   3397.8467      597131.24      817.51001      597418.7       595972.56      598002.46     -939.47955      2769.0272      1615.3294      7026.8593      7138.4748      14165.334      142162.12      41.42393       41.42393       82.84786           16000 
    137000   3374.9487      602269.01      824.03157      601136.39      602279.94      603390.71      949.23215      4055.7993     -1335.5164      6979.5055      7154.9266      14134.432      141866.42      41.395189      41.395189      82.790378          16000 
    138000   3414.2901      598102.1       830.55422      598165.14      597934.45      598206.72     -170.49799     -983.60267     -1914.6719      7060.8648      7112.769       14173.634      142096.96      41.4176        41.4176        82.835199          16000 
    139000   3387.824       597437.46      837.07523      598836.41      597381.78      596094.18     -328.43104      378.17791      800.27489      7006.1321      7193.9345      14200.067      142133.34      41.421134      41.421134      82.842268          16000 
    140000   3398.847       607143.46      843.58995      606142.76      608430.77      606856.86      4300.2474      2720.7784     -860.25332      7028.9279      7226.2321      14255.16       141788.37      41.387596      41.387596      82.775192          16000 
    141000   3413.3073      598055.68      850.11312      597846.18      597556.28      598764.59     -1341.935      -374.39787      1387.8027      7058.8323      7085.8856      14144.718      142171.06      41.424798      41.424798      82.849596          16000 
    142000   3397.2914      604352.61      856.65198      604633.71      605243.21      603180.92      3507.4259     -3329.358       1971.6692      7025.7108      7200.8645      14226.575      141895.91      41.398057      41.398057      82.796114          16000 
    143000   3385.3849      600408.37      863.23032      599732.36      600723         600769.75      2786.4587     -235.6586      -2065.9719      7001.0879      7273.3422      14274.43       142074.94      41.415461      41.415461      82.830921          16000 
    144000   3378.4117      595845.44      869.80116      596318.63      596899.47      594318.22      786.55135     -1561.9515      974.26252      6986.6672      7137.2788      14123.946      142113.26      41.419184      41.419184      82.838368          16000 
    145000   3416.0006      604143.95      876.36592      604064.42      603930.15      604437.3       642.53232      1878.3991      688.9023       7064.4021      7289.9772      14354.379      141882.25      41.396729      41.396729      82.793458          16000 
    146000   3361.1505      595566.67      882.88942      594773.17      598252.57      593674.28     -259.28457     -29.299103     -473.4539       6950.9703      7149.5899      14100.56       142190.96      41.426731      41.426731      82.853462          16000 
    147000   3414.0803      598800.13      889.43439      598746.65      599444.06      598209.69      2050.1317      681.13707     -242.71309      7060.431       7169.5768      14230.008      142074.97      41.415464      41.415464      82.830927          16000 
    148000   3416.0304      602806.15      895.96869      603793.9       602411.27      602213.28     -2326.3687      1145.2198     -2040.1795      7064.4638      7168.3686      14232.832      141900.31      41.398485      41.398485      82.796971          16000 
    149000   3380.3559      595716.09      902.49501      595057         598128.14      593963.13     -2656.1257      1526.7936     -1999.5068      6990.6877      7176.5127      14167.2        142180.03      41.42567       41.42567       82.851339          16000 
    150000   3387.4772      601933.34      909.01821      602363.34      601286.93      602149.74     -591.08113      932.38948     -1483.3961      7005.4148      7259.2666      14264.681      141934.69      41.401828      41.401828      82.803656          16000 
    151000   3405.8573      599763.35      915.54521      598964.56      600109.05      600216.44      717.59687     -3866.7199     -1284.1089      7043.4255      7214.2304      14257.656      142063.65      41.414364      41.414364      82.828728          16000 
    152000   3396.5073      596011.38      922.06884      597133.57      596980.15      593920.42      2792.9114     -388.49459     -2178.6375      7024.0894      7113.5209      14137.61       142143.03      41.422075      41.422075      82.844151          16000 
    153000   3388.0038      603458.47      928.5881       605350.9       601970.34      603054.17     -893.08022     -2039.5432      2361.7657      7006.5039      7217.5278      14224.032      141920.85      41.400483      41.400483      82.800966          16000 
    154000   3401.8412      596576.45      935.11274      595232.56      597552.95      596943.83      667.48278     -289.24753     -1245.4705      7035.1201      7121.0958      14156.216      142165.62      41.42427       41.42427       82.848541          16000 
    155000   3373.2745      603711.83      941.63687      602115.69      606457.75      602562.07      3532.0877     -11.464684      195.29923      6976.0432      7170.8465      14146.89       141915.19      41.399933      41.399933      82.799865          16000 
    156000   3415.5918      602784.06      948.16203      602148.23      603688.6       602515.34     -738.71339      1191.7577      715.49784      7063.5568      7199.5785      14263.135      141950.95      41.403409      41.403409      82.806819          16000 
    157000   3365.5022      594934.52      954.68278      594725.98      593995.52      596082.05     -3755.1225     -582.85443     -957.78726      6959.9698      7129.5496      14089.519      142207.88      41.428374      41.428374      82.856748          16000 
    158000   3376.2424      604215.46      961.20562      603403.1       604634.23      604609.06      2037.7437     -1135.291       69.424999      6982.1808      7255.3483      14237.529      141918.59      41.400262      41.400262      82.800525          16000 
    159000   3407.9231      597367.5       967.72799      598502.8       597265.68      596334.02     -2950.5712      123.29111     -349.898        7047.6976      7190.6767      14238.374      142148.78      41.422634      41.422634      82.845269          16000 
    160000   3366.3077      600185.22      974.24889      598741.15      601138.21      600676.3      -556.59547     -451.58773      2796.0349      6961.6357      7234.0384      14195.674      142012.08      41.409351      41.409351      82.818703          16000 
    161000   3380.6978      602236.78      980.77047      601705.6       603941.82      601062.92     -276.63706      3686.451      -4975.6972      6991.3948      7269.6596      14261.054      141981.11      41.406342      41.406342      82.812683          16000 
    162000   3395.7877      594063.58      987.29439      595052.37      593707.22      593431.14     -2030.4921      1543.3368     -943.47161      7022.6012      7032.6446      14055.246      142243.46      41.431828      41.431828      82.863657          16000 
    163000   3398.0418      605700.18      993.81415      604011.33      606796.64      606292.57     -1483.7418      561.72321     -5232.2853      7027.2628      7182.9147      14210.177      141820.26      41.390699      41.390699      82.781398          16000 
    164000   3371.9943      597809.41      1000.336       596640.01      598851.35      597936.88     -1978.0004     -660.46903      556.09726      6973.3956      7256.0945      14229.49       142178.23      41.425495      41.425495      82.85099           16000 
    165000   3421.6764      600083.6       1006.8569      598648.96      601897.37      599704.47     -972.69666      1503.7464     -625.48609      7076.1398      7179.0825      14255.222      142104.61      41.418343      41.418343      82.836687          16000 
    166000   3360.3316      599505.4       1013.3773      598475.33      601310.47      598730.41      1182.1177      891.31064      1574.2554      6949.2769      7125.7575      14075.034      142004.79      41.408643      41.408643      82.817286          16000 
    167000   3413.7111      597601.63      1019.9008      596543.97      599308.26      596952.67     -412.16994     -1621.2009     -864.57514      7059.6674      7188.9045      14248.572      142103.53      41.418238      41.418238      82.836476          16000 
    168000   3389.0033      601934.51      1026.4222      600487.94      601048.49      604267.09     -6977.8129      2092.7086      3504.2166      7008.571       7210.2674      14218.838      141971.48      41.405405      41.405405      82.81081           16000 
    169000   3419.581       596149.41      1032.9424      595186.8       596014.67      597246.76     -1028.1717      2214.6526     -263.25533      7071.8066      7148.857       14220.664      142281.89      41.435559      41.435559      82.871119          16000 
    170000   3408.702       601679.77      1039.4659      602729.29      596795         605515.04      1540.7124      2010.3676      389.40305      7049.3084      7192.8663      14242.175      141953.94      41.4037        41.4037        82.807401          16000 
    171000   3429.4752      601819.58      1045.99        601862.25      601710.53      601885.96      2144.2982      3212.1343     -1919.2616      7092.2681      7238.7626      14331.031      142017.35      41.409863      41.409863      82.819727          16000 
    172000   3422.0976      599828.79      1052.5129      601011.11      596932.98      601542.29     -1986.7226     -1596.9242     -811.12816      7077.011       7113.9092      14190.92       142116.69      41.419517      41.419517      82.839034          16000 
    173000   3423.1253      599462.72      1059.0345      599604.24      597925.77      600858.15     -4894.2962      66.441404     -3097.3632      7079.1363      7214.3454      14293.482      142069.09      41.414892      41.414892      82.829784          16000 
    174000   3376.5226      599762.23      1065.5497      600993.69      597682.4       600610.61     -1276.3043     -1650.2285     -119.57934      6982.7603      7177.6024      14160.363      142030.19      41.411112      41.411112      82.822224          16000 
    175000   3404.2383      599811.21      1072.0698      598648.29      599051.59      601733.74      849.5213      -1982.3601     -1125.6151      7040.0773      7213.9086      14253.986      142052.28      41.413259      41.413259      82.826517          16000 
    176000   3375.8351      596711.43      1078.5933      595216.16      598786.03      596132.09      3069.4303      2720.3983     -579.34486      6981.3387      7165.7161      14147.055      142113.19      41.419177      41.419177      82.838354          16000 
    177000   3415.8493      604608.81      1085.113       602834.38      606751.55      604240.49      1590.372      -1098.8622      2506.444       7064.0894      7224.573       14288.662      141914.92      41.399906      41.399906      82.799812          16000 
    178000   3393.9399      602804.15      1091.6357      601852.13      603152.94      603407.37      5650.138      -305.59513      234.32589      7018.7799      7130.1319      14148.912      141982.12      41.406439      41.406439      82.812879          16000 
    179000   3411.276       598047.29      1098.157       598607.18      599698.74      595835.93      774.52134      4080.653      -1969.3562      7054.6315      7169.0196      14223.651      142194.97      41.42712       41.42712       82.854241          16000 
    180000   3409.7668      601169.79      1104.6759      601132.87      599705.48      602671.03      3993.1445      120.51292     -2085.138       7051.5105      7154.2497      14205.76       141926.93      41.401074      41.401074      82.802148          16000 
    181000   3478.3345      597599.39      1111.1999      597973.36      599548.46      595276.34     -366.12657     -4396.4564      863.01422      7193.3108      7160.9041      14354.215      142151.53      41.422901      41.422901      82.845802          16000 
    182000   3372.5898      601859.44      1117.7245      601147.14      602319.9       602111.28      1196.008       2831.8628     -3094.8441      6974.6272      7217.0835      14191.711      141983.64      41.406587      41.406587      82.813174          16000 
    183000   3400.6622      603163.41      1124.2438      602089.97      603624.19      603776.06     -1195.7236     -1571.7664      4247.1021      7032.6819      7238.9835      14271.665      141909.69      41.399397      41.399397      82.798795          16000 
    184000   3372.4081      595975.61      1130.768       595552.89      595270.23      597103.71     -79.443636      1798.654       368.60392      6974.2514      7130.2439      14104.495      142195.17      41.42714       41.42714       82.854279          16000 
    185000   3377.1441      599921.43      1137.294       599877.46      598689.58      601197.26     -726.71235     -2179.1101     -2384.3311      6984.0455      7226.7159      14210.761      142073.9       41.41536       41.41536       82.830719          16000 
    186000   3422.9779      604102.91      1143.8156      604786.62      605022.42      602499.69     -1294.645      -1059.1696      525.39192      7078.8314      7256.3034      14335.135      141929.11      41.401286      41.401286      82.802572          16000 
    187000   3394.6963      596115.26      1150.3367      596311.4       596204.85      595829.52      1103.6393     -5472.5272     -2484.2028      7020.3441      7065.4523      14085.796      142200.83      41.42769       41.42769       82.855379          16000 
    188000   3414.5905      599500.07      1156.8577      598046.83      599630.78      600822.59      1188.566      -7229.1966     -877.69931      7061.4861      7194.3796      14255.866      142074.86      41.415453      41.415453      82.830906          16000 
    189000   3398.8545      603199.79      1163.3781      603101.83      602051.26      604446.29      2259.4759      682.7129       1676.3593      7028.9435      7193.1341      14222.078      141898.31      41.398291      41.398291      82.796581          16000 
    190000   3423.6375      594173.64      1169.8955      592215.78      594834.1       595471.04     -1407.326      -1195.0006     -2424.1871      7080.1955      7104.3752      14184.571      142328.73      41.440106      41.440106      82.880213          16000 
    191000   3413.1153      606317.89      1176.4133      605050.2       605575.21      608328.25     -4143.0208     -261.76465      1031.8897      7058.4353      7203.9891      14262.424      141829.03      41.391552      41.391552      82.783104          16000 
    192000   3410.474       602326.78      1182.9355      603028.62      602568.48      601383.25      1813.7614     -3288.7728      1438.6184      7052.9729      7220.6694      14273.642      141991.78      41.407378      41.407378      82.814756          16000 
    193000   3393.5797      597665.63      1189.4561      597088.97      598538.36      597369.56      1633.8068     -3210.4235      574.71076      7018.035       7129.031       14147.066      142144.56      41.422225      41.422225      82.84445           16000 
    194000   3424.8057      600982.35      1195.9735      600902.37      599938.99      602105.68     -2098.2102     -34.173192      4338.7807      7082.6114      7214.1834      14296.795      142074.25      41.415394      41.415394      82.830788          16000 
    195000   3385.1987      602668.56      1202.493       601810.03      604544.81      601650.84     -2026.8199     -1523.2564      1928.253       7000.7027      7202.6068      14203.309      141922.05      41.400599      41.400599      82.801198          16000 
    196000   3424.643       595619.36      1209.0164      596794.59      593834.6       596228.9      -87.550662      353.70059      3301.1446      7082.2749      7104.386       14186.661      142229.89      41.430511      41.430511      82.861022          16000 
    197000   3413.4865      605159.59      1215.5388      604175.09      606409.27      604894.4      -963.27281      2047.2314     -1624.2466      7059.2029      7237.9537      14297.157      141847.06      41.393306      41.393306      82.786612          16000 
    198000   3426.4401      598572.4       1222.0621      598833.7       599289.85      597593.64      145.16125      2981.6941      128.58775      7085.9914      7131.8637      14217.855      142106.17      41.418495      41.418495      82.83699           16000 
    199000   3425.944       598565.8       1228.5835      599866.38      598601.3       597229.71      943.78974     -463.74377      1763.7144      7084.9654      7170.1682      14255.134      142070.04      41.414985      41.414985      82.829969          16000 
    200000   3387.2083      600303.51      1235.1119      599870.26      603016.38      598023.9       2056.5        -1125.1648     -2768.1461      7004.8588      7104.4974      14109.356      142028.31      41.410929      41.410929      82.821857          16000 
    201000   3406.8122      599172.75      1241.6414      600457.33      598486.4       598574.51      511.14266     -492.16445     -867.88638      7045.4003      7273.7992      14319.199      142052.94      41.413323      41.413323      82.826645          16000 
    202000   3384.7596      600057.02      1248.1641      601891.42      598237.26      600042.38     -2264.3039      1675.2156     -158.8124       6999.7948      7192.6176      14192.412      142063.75      41.414373      41.414373      82.828746          16000 
    203000   3411.6672      600226.06      1254.6839      599326.36      601544.59      599807.23      2979.3939     -1179.6292      979.14339      7055.4405      7195.3859      14250.826      142049.54      41.412992      41.412992      82.825985          16000 
    204000   3374.0016      593558.85      1261.2087      593255.28      593042.8       594378.46      2110.506       5538.9012      579.57969      6977.5468      6975.0613      13952.608      142248.3       41.432298      41.432298      82.864597          16000 
    205000   3415.8977      605250.81      1267.7335      605186.38      603852.84      606713.21     -670.29789     -1882.2277     -3099.3417      7064.1895      7229.6748      14293.864      141855.4       41.394118      41.394118      82.788236          16000 
    206000   3408.589       598506.19      1274.2555      599724.65      597884.75      597909.17     -1185.904       1279.5572      6675.8516      7049.0748      7063.6352      14112.71       142119.8       41.419819      41.419819      82.839639          16000 
    207000   3397.1505      599309.59      1280.779       600495.92      597731.21      599701.63      5113.5032     -3537.3678     -3475.3279      7025.4195      7158.4778      14183.897      142075.81      41.415545      41.415545      82.831089          16000 
    208000   3379.202       604062.26      1287.3004      605782.62      603845.51      602558.64     -1570.3941     -765.18634     -5413.2247      6988.3015      7215.7691      14204.071      141896.3       41.398095      41.398095      82.79619           16000 
    209000   3418.3576      598801.55      1293.8231      599079.61      599836.84      597488.22     -5820.5199      795.93171     -597.37179      7069.2765      7129.3706      14198.647      142087.75      41.416706      41.416706      82.833411          16000 
    210000   3369.8661      600406.47      1300.3477      598051.27      601401.38      601766.76      172.66116      4912.8496      1772.1042      6968.9945      7296.8183      14265.813      142088.07      41.416736      41.416736      82.833472          16000 
    211000   3407.8734      600821.66      1306.8692      599640.92      600358.35      602465.71      688.73228      871.24556     -166.81176      7047.5949      7160.4219      14208.017      141996.85      41.407871      41.407871      82.815742          16000 
    212000   3388.4633      601230.84      1313.3876      602885.53      600528.11      600278.89      1222.4224     -1081.3484     -2115.3269      7007.4542      7214.6768      14222.131      142001.05      41.408279      41.408279      82.816559          16000 
    213000   3432.3062      595042.81      1319.9051      593345.28      595564.92      596218.24      3067.123      -2305.9148      2314.7927      7098.1227      7104.1865      14202.309      142255.11      41.43296       41.43296       82.865921          16000 
    214000   3449.2849      605704.9       1326.4215      605386.21      605092.94      606635.53      4258.4776      1902.9122      1111.5245      7133.2352      7194.0866      14327.322      141884.17      41.396916      41.396916      82.793832          16000 
    215000   3406.4262      598387.38      1332.9378      600398.28      596048.81      598715.04      2505.3925      2815.6094      3708.5628      7044.602       7150.4935      14195.095      142164         41.424113      41.424113      82.848226          16000 
    216000   3372.5469      600473.11      1339.4621      600837.98      599569         601012.35     -230.14002     -1632.0864     -708.89668      6974.5386      7146.0865      14120.625      142006.72      41.408831      41.408831      82.817662          16000 
    217000   3407.9061      600532.83      1345.9819      599748.97      601138.37      600711.15      1200.4202      1272.484       1648.9516      7047.6625      7225.3672      14273.03       142047.1       41.412755      41.412755      82.82551           16000 
    218000   3397.2226      597519.7       1352.5028      597346.8       596170.66      599041.63     -1437.9712      1855.6511     -1103.7101      7025.5687      7187.1608      14212.73       142161.67      41.423886      41.423886      82.847773          16000 
    219000   3415.1581      600077.1       1359.0236      599329.56      600650.64      600251.09      1392.0356      2094.8212      278.09842      7062.6599      7133.1273      14195.787      142075.05      41.415472      41.415472      82.830943          16000 
    220000   3387.7898      603315.35      1365.542       603388.07      601492.48      605065.51      3059.7087      7078.3751     -3666.2196      7006.0614      7170.2998      14176.361      141879.8       41.39649       41.39649       82.79298           16000 
    221000   3403.1178      592479.6       1372.0667      593333.2       591543.96      592561.64     -1817.3254     -204.17073     -1048.3771      7037.7601      7067.4167      14105.177      142287.62      41.436116      41.436116      82.872233          16000 
    222000   3394.1782      604793.47      1378.586       605974.49      602968.2       605437.71      1119.6121     -3460.0604     -2644.7191      7019.2728      7185.7252      14204.998      141820.72      41.390743      41.390743      82.781487          16000 
    223000   3406.3025      597784.36      1385.1048      599682.35      595817.02      597853.71      68.815362      3043.7245     -2980.3468      7044.3461      7148.7062      14193.052      142098.18      41.417718      41.417718      82.835436          16000 
    224000   3358.9697      598786.03      1391.6283      596652.11      600666.44      599039.52      4944.4692      2459.7953     -4480.7289      6946.4603      7122.8593      14069.32       142050.76      41.413111      41.413111      82.826221          16000 
    225000   3414.7584      600692.06      1398.1485      601893.83      602765.62      597416.74      2568.9167      2162.2393      3114.5865      7061.8333      7198.6537      14260.487      142027.53      41.410854      41.410854      82.821707          16000 
    226000   3416.6555      598411.63      1404.6692      599735.75      599373.3       596125.85      5297.4869     -368.04216      273.8374       7065.7565      7104.6917      14170.448      142140.79      41.421858      41.421858      82.843717          16000 
    227000   3389.0316      598341.12      1411.1872      598358.22      598995.97      597669.17      569.35551      4.5641524      807.93662      7008.6295      7196.8824      14205.512      142078.77      41.415833      41.415833      82.831666          16000 
    228000   3416.4173      603326.53      1417.7084      604984.1       603562.73      601432.77     -2478.2652     -1694.9638      3375.1143      7065.2638      7166.7547      14232.019      141969.48      41.405211      41.405211      82.810422          16000 
    229000   3401.7518      596190.4       1424.2308      595339.8       596373.02      596858.37     -4312.6927     -3004.036       2190.4403      7034.9351      7192.6976      14227.633      142201.26      41.427731      41.427731      82.855463          16000 
    230000   3358.7618      601222.58      1430.7514      600318.92      601847.37      601501.44     -1444.6475      371.17575      628.93784      6946.0304      7076.594       14022.624      141982.53      41.40648       41.40648       82.812959          16000 
    231000   3388.6337      603101.75      1437.2715      604478.2       602761.46      602065.6      -439.55152      306.52431      3279.6287      7007.8065      7232.3709      14240.177      141974.37      41.405686      41.405686      82.811372          16000 
    232000   3413.6078      594966.2       1443.7941      594313.85      594824.44      595760.31     -3540.5175     -1738.1336      2475.733       7059.4537      7000.0181      14059.472      142223.08      41.42985       41.42985       82.859701          16000 
    233000   3398.4565      604914.18      1450.3152      605198.39      603996.77      605547.38     -637.01713     -2147.6358     -458.83547      7028.1204      7266.9944      14295.115      141854.12      41.393992      41.393992      82.787985          16000 
    234000   3372.354       600200.51      1456.8362      598337.76      603431.16      598832.62      3363.6474     -521.25567      3805.2388      6974.1396      7190.7322      14164.872      142021.69      41.410286      41.410286      82.820572          16000 
    235000   3359.0766      597513.17      1463.3556      596908.97      597778.38      597852.16      1391.7545      993.8336      -902.49301      6946.6815      7203.6628      14150.344      142136.06      41.421398      41.421398      82.842796          16000 
    236000   3398.3217      601703.81      1469.8733      599904.01      602864.05      602343.39     -4520.6455     -5784.6953     -4663.3093      7027.8417      7136.3034      14164.145      141974.72      41.40572       41.40572       82.811441          16000 
    237000   3379.404       601259.7       1476.3905      602281.32      600751.13      600746.64     -1688.8102     -629.49026      795.30842      6988.7191      7183.5085      14172.228      142010.98      41.409244      41.409244      82.818489          16000 
    238000   3437.367       594817.78      1482.9098      594632.77      595393.84      594426.71      360.74871     -287.81087     -433.73846      7108.5886      7120.3373      14228.926      142260.44      41.433477      41.433477      82.866954          16000 
    239000   3393.4788      605935.62      1489.4292      606302.46      604364.89      607139.52     -2229.7426     -1156.5114     -2035.2987      7017.8263      7211.6819      14229.508      141835.17      41.392149      41.392149      82.784298          16000 
    240000   3395.5648      597730.72      1495.9462      598009.46      596760.63      598422.08      1162.1092      870.12707      1689.4768      7022.1404      7118.6198      14140.76       142113.87      41.419243      41.419243      82.838486          16000 
    241000   3399.1918      598073.8       1502.4689      597344.97      597760.03      599116.4       68.725684     -1378.9102     -807.84448      7029.641       7185.9412      14215.582      142093.11      41.417226      41.417226      82.834452          16000 
    242000   3421.3562      599507.68      1508.9891      600361.51      599974.05      598187.49      1060.6458      1714.5536      1439.1155      7075.4778      7161.3187      14236.796      142062.95      41.414296      41.414296      82.828592          16000 
    243000   3375.1148      599087.2       1515.5069      599681.64      600507.13      597072.84      1655.662      -1460.3058     -60.53433       6979.849       7131.0784      14110.927      142033.6       41.411444      41.411444      82.822887          16000 
    244000   3411.307       600464.69      1522.0257      600078.07      600500.33      600815.66      195.33833     -281.05132      539.70448      7054.6956      7160.2914      14214.987      142019.78      41.4101        41.4101        82.820199          16000 
    245000   3387.1766      603106.73      1528.5442      603435.66      603727.46      602157.08      1069.5223      1175.3929     -2049.2132      7004.7933      7194.535       14199.328      141975.54      41.4058        41.4058        82.8116            16000 
    246000   3428.2251      592973.41      1535.0629      591417.21      593240.8       594262.22      1217.632       3407.2687      1100.6364      7089.6829      7007.2293      14096.912      142350.03      41.442173      41.442173      82.884346          16000 
    247000   3434.5389      606966.51      1541.585       608168.16      606038.06      606693.31     -522.91271     -953.91631     -318.56606      7102.74        7304.492       14407.232      141844.97      41.393103      41.393103      82.786205          16000 
    248000   3428.9433      596929.25      1548.1062      596935.01      596145.59      597707.14     -1115.6683     -4.2486495      1435.0102      7091.168       7049.401       14140.569      142144.28      41.422197      41.422197      82.844394          16000 
    249000   3407.4073      596951.35      1554.6256      596856.43      595106.88      598890.73     -194.13235     -2754.8415      85.177859      7046.631       7190.327       14236.958      142137.5       41.421538      41.421538      82.843077          16000 
    250000   3441.404       601530.61      1561.1458      601869.58      601986.37      600735.88      1861.8508      2151.4649     -1173.7228      7116.9372      7126.8228      14243.76       141934         41.401761      41.401761      82.803522          16000 
    251000   3364.7507      596304.22      1567.6639      596494.04      596090.93      596327.7      -4353.2087     -1729.5026      326.1974       6958.4156      7081.664       14040.08       142077.92      41.415751      41.415751      82.831501          16000 
    252000   3425.7497      600682.98      1574.1859      600306.81      600340.97      601401.16      1438.5729      561.24862      1859.0176      7084.5635      7184.0529      14268.616      142028.24      41.410922      41.410922      82.821844          16000 
    253000   3411.198       601487.51      1580.7089      600898.88      599785.55      603778.11     -1211.3778      4159.836      -974.96664      7054.4703      7256.1136      14310.584      141999.99      41.408176      41.408176      82.816353          16000 
    254000   3400.5521      594586.89      1587.2303      595474.77      594176.26      594109.66     -882.10353      1489.5197     -21.593029      7032.4541      7056.2891      14088.743      142203.64      41.427963      41.427963      82.855925          16000 
    255000   3419.0485      604784.51      1593.7536      606461.12      605431.27      602461.14      1115.9682      3382.4573      2373.7483      7070.7053      7272.408       14343.113      141899.41      41.398398      41.398398      82.796796          16000 
    256000   3376.3339      599835.12      1600.2769      600061.09      600772.59      598671.68      4306.0984     -2248.7836     -1448.3873      6982.3701      7158.627       14140.997      142027.9       41.410889      41.410889      82.821778          16000 
    257000   3403.1145      599672.78      1606.7972      599825.4       599170.26      600022.69      2840.0558     -474.70067      1288.7098      7037.7533      7192.4056      14230.159      142134.36      41.421233      41.421233      82.842467          16000 
    258000   3409.9405      600807.19      1613.3205      600296.39      600016.84      602108.35      5318.3737     -2315.3409     -3183.8756      7051.8697      7163.0084      14214.878      142022.35      41.41035       41.41035       82.820701          16000 
    259000   3415.6206      598642.98      1619.8432      599086.22      598556.67      598286.04     -1870.5061     -866.35146     -2943.6187      7063.6163      7130.0407      14193.657      142055.13      41.413535      41.413535      82.82707           16000 
    260000   3372.7115      596495.73      1626.361       596596.86      596064.82      596825.52      863.6115       63.999065     -3295.9707      6974.8788      7180.4264      14155.305      142193.07      41.426936      41.426936      82.853872          16000 
    261000   3423.4373      607244.36      1632.8834      608236.76      606961.79      606534.54      627.44383      3343.4147     -873.20506      7079.7815      7254.5365      14334.318      141825.72      41.39123       41.39123       82.782461          16000 
    262000   3387.4522      597025.32      1639.4026      598122.17      595698.78      597255.01      2380.2285      224.92445      1761.6295      7005.3632      7080.4315      14085.795      142151.7       41.422918      41.422918      82.845836          16000 
    263000   3408.0635      599374.68      1645.9242      601438.49      596807.51      599878.03     -412.92592      1699.7599      2323.2892      7047.988       7191.4923      14239.48       142115.49      41.4194        41.4194        82.8388            16000 
    264000   3384.8464      602040.07      1652.449       602202.47      602198.78      601718.97      3400.3358      2361.4387      3818.2982      6999.9742      7148.5044      14148.479      141968.91      41.405156      41.405156      82.810311          16000 
    265000   3420.0569      599070.47      1658.9665      598849         598015.54      600346.88     -320.2039      -1448.6293      3452.3099      7072.7908      7167.5453      14240.336      142125.75      41.420397      41.420397      82.840795          16000 
    266000   3366.6419      596736.87      1665.4883      596733.11      597167.73      596309.76     -3734.9368     -108.66856      2616.37        6962.3268      7070.9266      14033.253      142091.99      41.417117      41.417117      82.834234          16000 
    267000   3438.2852      606287.66      1672.0137      605753.74      605748.31      607360.94      3258.4078     -2880.2504      1104.5174      7110.4874      7261.4738      14371.961      141803.84      41.389102      41.389102      82.778204          16000 
    268000   3420.3581      595229.75      1678.5375      595754.36      596726.1       593208.78     -3324.6482     -2603.5635      1464.3571      7073.4136      7127.5356      14200.949      142226.48      41.43018       41.43018       82.860361          16000 
    269000   3359.9031      601747.46      1685.0603      601797.35      602079.83      601365.19     -337.94828      1327.3858      1512.2402      6948.3906      7147.2321      14095.623      141961         41.404386      41.404386      82.808772          16000 
    270000   3421.7241      602210.66      1691.5836      599718.76      603336.82      603576.4      -3076.8592     -2804.9286      1847.3899      7076.2386      7196.3708      14272.609      141928.9       41.401266      41.401266      82.802531          16000 
    271000   3380.5748      597634.61      1698.1057      596658.46      599598.59      596646.78     -1962.7559     -1971.5264     -2462.3583      6991.1405      7163.9737      14155.114      142117.43      41.419588      41.419588      82.839177          16000 
    272000   3372.9209      604553.6       1704.6284      603338.13      605089.24      605233.44      584.98485     -179.93435     -3246.6858      6975.3119      7237.4201      14212.732      141853.52      41.393935      41.393935      82.78787           16000 
    273000   3402.0063      590913.97      1711.1519      589239.61      590988.65      592513.65      765.90993      2733.7341      1195.6718      7035.4615      7205.9879      14241.449      142398.29      41.446856      41.446856      82.893713          16000 
    274000   3390.2742      601329.7       1717.6741      600138.21      602104.91      601745.99     -1904.3134      4484.4674     -3887.7873      7011.1992      7187.4465      14198.646      141979.43      41.406178      41.406178      82.812356          16000 
    275000   3433.9644      599318.8       1724.1981      599350.72      597473.72      601131.98      1221.8718     -3305.6846     -4713.6942      7101.552       7183.0836      14284.636      142110.54      41.418919      41.418919      82.837838          16000 
    276000   3414.493       599591.78      1730.7215      600643.86      599379.15      598752.33     -1530.8566     -1104.9047     -3200.693       7061.2843      7110.1896      14171.474      142018.8       41.410005      41.410005      82.82001           16000 
    277000   3418.7212      604888.03      1737.2445      604710.49      606264.57      603689.01      3812.535       2746.9481     -530.40851      7070.0284      7306.2573      14376.286      141931.15      41.401484      41.401484      82.802968          16000 
    278000   3389.1657      590021.1       1743.7721      589421.69      590663.42      589978.18     -4155.5404     -2727.6752     -1486.2183      7008.9068      7010.8963      14019.803      142421.71      41.449128      41.449128      82.898256          16000 
    279000   3419.751       605005.2       1750.2934      606315.25      605574.55      603125.81     -402.81348     -1023.8901      1990.9269      7072.1581      7168.4795      14240.638      141832.71      41.391911      41.391911      82.783821          16000 
    280000   3417.5362      598874.92      1756.8192      597659.87      599851.04      599113.87     -320.77799      2300.6377      634.78681      7067.5779      7203.7524      14271.33       142083.03      41.416247      41.416247      82.832494          16000 
    281000   3390.8284      596849.25      1763.3428      596252.14      595847.31      598448.3      -808.84755      594.84702     -2339.2164      7012.3452      7170.458       14182.803      142109.8       41.418848      41.418848      82.837695          16000 
    282000   3414.3257      601932         1769.8627      599324         601675.97      604796.02      4574.1549     -440.41335      1726.573       7060.9384      7184.429       14245.367      142020.15      41.410136      41.410136      82.820271          16000 
    283000   3384.0038      596391.58      1776.3859      595329.2       597306.79      596538.75      3031.2947     -719.87582      2722.1415      6998.2318      7101.6181      14099.85       142158.64      41.423592      41.423592      82.847183          16000 
    284000   3419.5441      606511.2       1782.9101      607796.75      605531.78      606205.08     -1165.3968     -5067.1286     -1414.8934      7071.7303      7310.9372      14382.667      141788.78      41.387637      41.387637      82.775273          16000 
    285000   3396.2151      598250.01      1789.4316      598909.78      597711.18      598129.07     -512.75524      532.92855      4011.5997      7023.485       7149.4732      14172.958      142126.56      41.420475      41.420475      82.840951          16000 
[...]
   3930000   3603.9139      600960.71      6751.7578      599854.43      597216.38      605811.33      1381.8811     -4636.5401     -7245.7152      7453.0131      12556.146      20009.159      141147.16      41.428379      41.428379      82.238708          16000 
   3931000   3594.8747      592474.97      6759.0102      590912.92      594038.85      592473.15     -2870.1441      1783.7647      382.73374      7434.3198      12454.603      19888.923      141468.23      41.459767      41.459767      82.301016          16000 
   3932000   3576.9746      603340.98      6766.2677      600730.66      605730.16      603562.12     -520.57141      6203.8813      3033.8525      7397.3018      12642.797      20040.099      141062.29      41.420073      41.420073      82.22222           16000 
   3933000   3578.9451      599370.39      6773.5168      598433.82      599606.16      600071.21      112.45241      511.95068     -1238.3755      7401.3769      12579.491      19980.868      141220.33      41.435536      41.435536      82.252915          16000 
   3934000   3590.1925      597252.03      6780.7655      596997.55      598116.45      596642.09     -1270.077      -3695.7452      4023.9444      7424.6368      12536.777      19961.413      141270.6       41.440452      41.440452      82.262674          16000 
   3935000   3592.4961      601570.61      6788.0158      601502.6       600883.46      602325.76      932.4659      -3562.094       4727.3573      7429.4007      12598.726      20028.126      141093.06      41.423084      41.423084      82.228198          16000 
   3936000   3607.5093      597371.69      6795.2702      597729.44      597638.48      596747.15     -207.39707      3731.7624     -4768.2359      7460.4485      12521.164      19981.613      141214.95      41.43501       41.43501       82.251871          16000 
   3937000   3579.1186      599272.31      6802.5284      598490.95      597183.02      602142.95     -2429.6995     -423.81582     -1242.9072      7401.7355      12561.986      19963.721      141261.71      41.439582      41.439582      82.260948          16000 
   3938000   3594.1635      601163.78      6809.7839      603290.58      599591.44      600609.32      1423.435      -2648.6286     -1159.1393      7432.8489      12555.52       19988.369      141194.29      41.432989      41.432989      82.247859          16000 
   3939000   3596.954       602064.7       6817.04        603182.5       601925.18      601086.42      1938.1618      4356.7314      1772.0156      7438.6198      12561.281      19999.901      141161.05      41.429737      41.429737      82.241405          16000 
   3940000   3598.598       604617.76      6824.2913      605656.06      604909.36      603287.86     -404.66285     -3097.7332     -783.30902      7442.0196      12592.799      20034.819      141067.5       41.420583      41.420583      82.223233          16000 
   3941000   3602.0711      597563.03      6831.5448      594688.43      596765.23      601235.43     -1829.4321      4912.9204      2733.7641      7449.2022      12500.931      19950.133      141293.17      41.442659      41.442659      82.267055          16000 
   3942000   3568.9321      596141.18      6838.7966      594211.64      595549.77      598662.12      775.11176      705.56395      1737.8061      7380.6696      12521.294      19901.963      141421         41.455153      41.455153      82.291857          16000 
   3943000   3619.3855      605368.66      6846.0448      607431.77      604677.32      603996.89      2404.3525      3801.839       4460.5723      7485.0089      12571.158      20056.167      141008.27      41.414785      41.414785      82.211724          16000 
   3944000   3607.4773      597030.28      6853.2927      595157.51      600167.42      595765.91      1759.3059     -3047.4144     -3486.5858      7460.3823      12469.618      19930          141343.86      41.447614      41.447614      82.276891          16000 
   3945000   3622.8003      597815.02      6860.5453      597391.69      596823.65      599229.72      590.36798      456.00171     -9944.3513      7492.0709      12448.108      19940.179      141315.98      41.444888      41.444888      82.271481          16000 
   3946000   3602.8436      601165.67      6867.8005      602041.11      600628.34      600827.56      1912.1627     -2598.5513      331.65949      7450.7996      12484.107      19934.906      141328.42      41.446105      41.446105      82.273895          16000 
   3947000   3592.0572      597201.49      6875.0512      595882.38      599044.14      596677.93      3370.3323      3221.187       1611.1905      7428.4931      12459.664      19888.157      141452.08      41.45819       41.45819       82.297884          16000 
   3948000   3627.4554      602912.93      6882.3086      602110.49      604272.54      602355.76     -79.242924      4475.8352     -1039.0418      7501.6977      12464.126      19965.824      141242.36      41.43769       41.43769       82.257192          16000 
   3949000   3632.492       601495.52      6889.5624      602182.21      601243.98      601060.36      2660.7879     -1099.7095     -3635.4719      7512.1135      12492.253      20004.366      141138.75      41.427555      41.427555      82.237073          16000 
   3950000   3592.0962      595956.52      6896.8165      595695.45      596992.98      595181.13      2235.3058     -921.37492      1514.272       7428.5737      12403.495      19832.068      141598.7       41.472508      41.472508      82.326309          16000 
   3951000   3636.9667      593870.46      6904.0792      593379.51      591273.4       596958.48     -3358.5578      1045.043       3339.8368      7521.3674      12383.194      19904.561      141402.99      41.453393      41.453393      82.288363          16000 
   3952000   3626.193       603135.57      6911.3472      601043.16      605450.86      602912.68     -579.32646      3725.5771     -10003.651      7499.087       12500.442      19999.529      141148.25      41.428485      41.428485      82.238919          16000 
   3953000   3625.9694      601339.59      6918.6131      604577.03      599841.26      599600.48      3528.9812      1229.0705     -3793.3525      7498.6246      12481.014      19979.638      141200.07      41.433554      41.433554      82.248981          16000 
   3954000   3635.3571      599098.94      6925.8705      601354.98      597315.68      598626.15     -661.31156     -7287.4929      3382.4247      7518.0387      12463.082      19981.121      141193.11      41.432874      41.432874      82.24763           16000 
   3955000   3633.7774      603014.5       6933.1315      606357.72      600476.28      602209.48      1694.0873      3022.0596     -2369.1994      7514.7718      12472.279      19987.05       141177.32      41.431329      41.431329      82.244563          16000 
   3956000   3598.7529      597751.42      6940.3931      597595.37      599977.11      595681.76      545.30181      1285.9742     -1465.2627      7442.34        12501.348      19943.688      141293.36      41.442678      41.442678      82.267092          16000 
   3957000   3608.2032      605053.6       6947.653       604372.34      605077.03      605711.43      2340.122      -5433.4675      2867.9178      7461.8835      12574.487      20036.371      141045.18      41.418399      41.418399      82.218896          16000 
   3958000   3595.3645      601135.69      6954.9017      604645.27      600477.69      598284.1       469.03689     -233.89542      470.1397       7435.3327      12564.025      19999.358      141141.16      41.427792      41.427792      82.237542          16000 
   3959000   3583.1995      592120.98      6962.1566      590765.16      592756.78      592841.01      1626.6044      1828.0801      1314.0848      7410.1751      12434.989      19845.164      141551.83      41.467932      41.467932      82.317225          16000 
   3960000   3571.4255      598713.98      6969.4103      597963.76      596990.22      601187.96     -296.62463      5520.5667     -1331.5849      7385.8259      12565.507      19951.333      141266.81      41.440081      41.440081      82.261938          16000 
   3961000   3604.9331      601381.45      6976.6604      600283.8       601406.95      602453.59      2047.7294      3661.3209      664.91143      7455.1209      12500.022      19955.143      141254.66      41.438893      41.438893      82.259579          16000 
   3962000   3577.9382      601401.66      6983.9176      601545.68      597088.59      605570.71      3423.4246     -3163.4098     -2542.253       7399.2944      12553.675      19952.969      141259.49      41.439366      41.439366      82.260517          16000 
   3963000   3608.0102      598895.08      6991.1744      600899.46      597515.67      598270.12     -328.85307      7762.1779     -2399.4262      7461.4845      12488.091      19949.575      141268.07      41.440204      41.440204      82.262183          16000 
   3964000   3604.4385      604323.06      6998.4317      602437.53      606573.67      603957.99      337.93701     -1242.1623     -11073.392      7454.0979      12544.524      19998.622      141137.17      41.427401      41.427401      82.236767          16000 
   3965000   3605.3634      604401.09      7005.6851      601654.83      604901.86      606646.59     -952.36791      3423.95       -902.8191       7456.0108      12561.202      20017.213      141086.5       41.422443      41.422443      82.226924          16000 
   3966000   3595.8657      595842.2       7012.9369      595581.76      595476.89      596467.94      994.47478     -5059.04        718.00772      7436.3692      12504.075      19940.445      141290.29      41.442377      41.442377      82.266496          16000 
   3967000   3593.826       599924.85      7020.1865      598694.03      601518.88      599561.65     -1480.1023     -2011.636      -2518.4927      7432.151       12551.395      19983.546      141169.28      41.430543      41.430543      82.243003          16000 
   3968000   3600.2241      605228.73      7027.4334      606424.43      605154.27      604107.49     -2064.2551     -3643.4078     -32.133793      7445.3824      12589.659      20035.041      141031.17      41.417027      41.417027      82.216174          16000 
   3969000   3583.6299      593610.35      7034.6795      593962         594628.61      592240.45      192.3845       117.7758       5397.3616      7411.0651      12481.27       19892.336      141413.44      41.454414      41.454414      82.290389          16000 
   3970000   3552.352       598427.24      7041.9342      597479.96      599585.51      598216.26     -241.88864      5383.6768      2488.6778      7346.3814      12635.571      19981.953      141171.16      41.430727      41.430727      82.243369          16000 
   3971000   3565.2492      598290.66      7049.187       598249.04      600753.55      595869.38     -2181.0245     -2278.3926     -3437.1371      7373.0531      12573.418      19946.471      141263.77      41.439785      41.439785      82.261349          16000 
   3972000   3593.8374      600004.65      7056.4384      598944.56      599442.82      601626.57     -3320.7641      39.582562     -4195.4428      7432.1746      12516.442      19948.617      141257.07      41.439129      41.439129      82.260048          16000 
   3973000   3545.2379      605739.48      7063.6963      602821.57      609044.97      605351.91     -3404.9369      6243.5232      2426.1505      7331.6693      12691.411      20023.08       141057.05      41.41956       41.41956       82.221203          16000 
   3974000   3592.4563      602269.63      7070.9571      605018.23      601435.69      600354.99     -2675.5254      1677.3424      3335.4536      7429.3185      12602.018      20031.337      141034.43      41.417346      41.417346      82.216807          16000 
   3975000   3581.137       590320.09      7078.2137      591313.02      588883.39      590763.86     -3637.1363     -11469.609     -3438.4224      7405.9097      12436.151      19842.061      141539.99      41.466777      41.466777      82.314931          16000 
   3976000   3595.1493      603988.57      7085.4722      605452.96      600961.8       605550.96      109.23537     -1503.7824      2113.997       7434.8876      12582.551      20017.439      141064.66      41.420306      41.420306      82.222682          16000 
   3977000   3568.5876      600689.03      7092.7306      601063.48      604989.29      596014.34     -1557.1736      4066.2041      9139.9595      7379.9571      12668.318      20048.275      140982.61      41.412274      41.412274      82.206737          16000 
   3978000   3560.9067      592644.41      7099.9916      592113.76      592710.1       593109.37     -1205.5493     -2099.6634     -676.25831      7364.0728      12535.386      19899.459      141376.81      41.450834      41.450834      82.283284          16000 
   3979000   3562.8982      603237.33      7107.2478      603320.32      604551.12      601840.54     -3271.1005     -5838.4154     -2619.5367      7368.1913      12682.261      20050.452      140972.97      41.411329      41.411329      82.204862          16000 
   3980000   3569.3334      602435.47      7114.5111      599241.49      604175.78      603889.14     -867.55442     -959.68134      581.0235       7381.4995      12654.9        20036.4        141010.02      41.414957      41.414957      82.212064          16000 
   3981000   3574.7928      597714.73      7121.7713      597976         597519.83      597648.37     -3406.9113      978.33758      1360.1185      7392.7898      12550.55       19943.34       141258.18      41.439238      41.439238      82.260264          16000 
   3982000   3579.9009      603303.07      7129.026       603045.43      603719.94      603143.84     -991.54211     -895.746       -5645.5878      7403.3534      12620.252      20023.605      141042.66      41.418152      41.418152      82.218406          16000 
   3983000   3586.7789      597362.94      7136.2813      594152.77      598170.36      599765.7      -494.79807      6998.2318     -6391.6021      7417.5773      12499.765      19917.342      141324.07      41.44568       41.44568       82.273052          16000 
   3984000   3605.4493      605937.11      7143.5323      608459.67      605399.17      603952.49     -1870.8707     -728.61208     -298.96947      7456.1884      12485.292      19941.48       141257.81      41.439201      41.439201      82.26019           16000 
   3985000   3626.8263      591855.54      7150.7851      588481.81      594416.39      592668.43      598.30417     -6949.1247      114.18958      7500.3967      12356.889      19857.286      141483.47      41.461256      41.461256      82.303972          16000 
   3986000   3598.0271      601804.79      7158.0377      599035.99      603377.09      603001.3      -907.44595     -2865.3486      278.97375      7440.8391      12527.347      19968.186      141186.29      41.432207      41.432207      82.246307          16000 
   3987000   3582.378       603432.81      7165.2884      602398.58      608279.44      599620.39      2691.8165      988.96846      898.45614      7408.4761      12581.465      19989.942      141125.06      41.426216      41.426216      82.234414          16000 
   3988000   3592.7402      599257.48      7172.5404      602336.46      597407.71      598028.26      629.15593      1679.4366     -2154.9137      7429.9054      12513.162      19943.067      141249.83      41.438421      41.438421      82.258642          16000 
   3989000   3579.0575      597003.77      7179.7943      596460.03      598080.48      596470.81     -1280.4942     -1913.1214      5749.2154      7401.6092      12531.748      19933.358      141275.53      41.440935      41.440935      82.263632          16000 
   3990000   3591.7041      602352.71      7187.0444      599758.92      603017.98      604281.22     -299.55415      3602.1686     -49.936137      7427.7628      12552.01       19979.772      141150         41.428656      41.428656      82.239258          16000 
   3991000   3573.3752      599217.47      7194.2972      598150.07      598269.26      601233.09     -2615.5615      9151.2507     -654.80357      7389.858       12546.365      19936.223      141266.26      41.440028      41.440028      82.261832          16000 
   3992000   3587.1062      594500.37      7201.552       595865.16      594368.25      593267.69      2196.9478     -2326.1755      483.33138      7418.2543      12455.339      19873.593      141429.02      41.455936      41.455936      82.293412          16000 
   3993000   3554.8998      600532.94      7208.8042      599519.28      601948.67      600130.87     -1749.1825     -3145.6369      2162.4632      7351.6502      12644.634      19996.284      141099.64      41.423729      41.423729      82.229477          16000 
   3994000   3582.0591      605489.63      7216.0603      605225.03      606277.91      604965.96      390.41002     -3466.2798      8615.3683      7407.8166      12615.915      20023.732      141025.5       41.416472      41.416472      82.215072          16000 
   3995000   3586.8615      597630.14      7223.3168      596109.21      599137.12      597644.09      2304.2473      2762.0634     -2571.7321      7417.7482      12517.907      19935.656      141259.46      41.439363      41.439363      82.260511          16000 
   3996000   3579.949       599155.5       7230.5736      597476.04      597503.58      602486.87      1881.2049      2673.1702      888.5924       7403.4528      12545.442      19948.895      141223.19      41.435816      41.435816      82.253471          16000 
   3997000   3597.018       601539.26      7237.8226      598117.21      604247.69      602252.87      3374.5661     -441.50502     -526.91929      7438.7521      12523.516      19962.268      141187.18      41.432294      41.432294      82.24648           16000 
   3998000   3565.7386      590036.51      7245.0736      589170.76      592071.29      588867.48      2330.5991     -2746.1475     -513.45299      7374.0653      12445.587      19819.652      141569.93      41.4697        41.4697        82.320734          16000 
   3999000   3574.8257      595935.46      7252.3251      595004.61      597250.31      595551.47      27.940701     -3144.1102     -1131.1523      7392.8577      12489.224      19882.081      141400.97      41.453196      41.453196      82.287971          16000 
   4000000   3616.2198      603271.97      7259.5834      603994.47      603108.33      602713.1      -3856.0849     -1889.2746     -1905.0965      7478.4621      12506.881      19985.343      141124.35      41.426146      41.426146      82.234276          16000 
Loop time of 7259.58 on 8 procs for 1000000 steps with 16000 atoms

Performance: 5.951 ns/day, 4.033 hours/ns, 137.749 timesteps/s
59.2% CPU use with 1 MPI tasks x 8 OpenMP threads

MPI task timing breakdown:
Section |  min time  |  avg time  |  max time  |%varavg| %total
---------------------------------------------------------------
Pair    | 6944.7     | 6944.7     | 6944.7     |   0.0 | 95.66
Neigh   | 12.385     | 12.385     | 12.385     |   0.0 |  0.17
Comm    | 47.492     | 47.492     | 47.492     |   0.0 |  0.65
Output  | 1.5047     | 1.5047     | 1.5047     |   0.0 |  0.02
Modify  | 225.53     | 225.53     | 225.53     |   0.0 |  3.11
Other   |            | 27.97      |            |       |  0.39

Nlocal:          16000 ave       16000 max       16000 min
Histogram: 1 0 0 0 0 0 0 0 0 0
Nghost:          14655 ave       14655 max       14655 min
Histogram: 1 0 0 0 0 0 0 0 0 0
Neighs:              0 ave           0 max           0 min
Histogram: 1 0 0 0 0 0 0 0 0 0
FullNghs:  1.63659e+06 ave 1.63659e+06 max 1.63659e+06 min
Histogram: 1 0 0 0 0 0 0 0 0 0

Total # of neighbors = 1636590
Ave neighs/atom = 102.28687
Neighbor list builds = 30646
Dangerous builds = 0
Total wall time: 7:47:20
