
atom_style atomic
units metal
boundary p p p
#atom_modify sort 0 0.0
newton on

read_data data.lammps
Reading data file ...
  triclinic box = (0 0 0) to (4.3790145 4.3790145 4.3790145) with tilt (-0 0 0)
  1 by 1 by 1 MPI processor grid
  reading atoms ...
  8 atoms
  read_data CPU = 0.003 seconds
replicate 10 10 20
Replicating atoms ...
  triclinic box = (0 0 0) to (43.790145 43.790145 87.58029) with tilt (-0 0 0)
  1 by 1 by 1 MPI processor grid
  16000 atoms
  replicate CPU = 0.007 seconds

### interactions

pair_style flare
pair_coeff * * lmp.flare
Reading potential file lmp.flare with DATE: Thu

# compute unc all flare/std/atom L_inv_lmp.flare sparse_desc_lmp.flare
# compute MaxUnc all reduce max c_unc

mass 1 12.011000
mass 2 28.085000

thermo_style custom step temp press cpu pxx pyy pzz pxy pxz pyz ke pe etotal vol lx ly lz atoms    #c_MaxUnc
thermo 1000
timestep 0.0005
restart 100000 restart_*.dat

#################### Equilibrate at P and T_es ##############################
velocity all create $T 41928459 rot yes dist gaussian
velocity all create 3600 41928459 rot yes dist gaussian
fix mom all momentum 1000 linear 1 1 1 angular

fix 1 all npt temp $T $T $(100.0*dt) iso $P $P $(1000.0*dt)
fix 1 all npt temp 3600 $T $(100.0*dt) iso $P $P $(1000.0*dt)
fix 1 all npt temp 3600 3600 $(100.0*dt) iso $P $P $(1000.0*dt)
fix 1 all npt temp 3600 3600 0.050000000000000002776 iso $P $P $(1000.0*dt)
fix 1 all npt temp 3600 3600 0.050000000000000002776 iso 100000 $P $(1000.0*dt)
fix 1 all npt temp 3600 3600 0.050000000000000002776 iso 100000 100000 $(1000.0*dt)
fix 1 all npt temp 3600 3600 0.050000000000000002776 iso 100000 100000 0.5
dump 1 all custom 1000 1equil.bin id type x y z vx vy vz
run   10000 # report performance
Neighbor list info ...
  update every 1 steps, delay 10 steps, check yes
  max neighbors/atom: 2000, page size: 100000
  master list distance cutoff = 6
  ghost atom cutoff = 6
  binsize = 6, bins = 8 8 15
  1 neighbor lists, perpetual/occasional/extra = 1 0 0
  (1) pair flare/kk, perpetual
      attributes: full, newton on, kokkos_device
      pair build: full/bin/kk/device
      stencil: full/bin/3d
      bin: kk/device
Per MPI rank memory allocation (min/avg/max) = 15.9 | 15.9 | 15.9 Mbytes
   Step          Temp          Press           CPU            Pxx            Pyy            Pzz            Pxy            Pxz            Pyz           KinEng         PotEng         TotEng         Volume           Lx             Ly             Lz          Atoms   
         0   3600           66059.554      0              65701.03       66222.995      66254.636     -499.5503       224.99675     -564.80851      7444.919      -4109.4047      3335.5143      167941.93      43.790145      43.790145      87.58029           16000 
      1000   3500.9079      98018.786      6.3230189      98053.461      98479.502      97523.393     -1346.342       547.10711      1201.5454      7239.9933      4178.1032      11418.097      170851.68      44.041599      44.041599      88.083199          16000 
      2000   3596.0089      96563.2        12.583932      97029.437      96681.066      95979.097     -3106.6441      732.81662     -149.33082      7436.6653      4524.0152      11960.68       171526.6       44.099516      44.099516      88.199033          16000 
      3000   3587.3122      99905.154      18.844993      99183.552      99848.458      100683.45     -373.65909      321.5602       2541.7342      7418.6803      4201.4164      11620.097      170960.73      44.050968      44.050968      88.101936          16000 
      4000   3597.6703      99160.253      25.114939      99434.644      98499.477      99546.639     -775.27104      613.76856      1859.2648      7440.1012      4319.5968      11759.698      170998.71      44.054229      44.054229      88.108459          16000 
      5000   3661.9109      99520.44       31.373988      99745.203      98939.805      99876.313      1323.1502      217.96939      228.51451      7572.9527      4298.5742      11871.527      171242.12      44.075123      44.075123      88.150245          16000 
      6000   3576.6528      101599.68      37.635504      100887.01      102683.69      101228.35      43.210722     -2725.4653     -993.72737      7396.6361      4186.8191      11583.455      170794.44      44.036681      44.036681      88.073362          16000 
      7000   3622.3316      98592.216      43.895248      98168.949      101047.54      96560.157     -754.08598     -1433.4624      198.4292       7491.1015      4384.6523      11875.754      171345.88      44.084023      44.084023      88.168047          16000 
      8000   3611.8773      102315.71      50.155251      103532.25      102477.58      100937.28     -466.44348     -1224.9795      1855.4092      7469.4816      4329.2313      11798.713      170968.53      44.051638      44.051638      88.103275          16000 
      9000   3604.4603      103185.79      56.414939      101754.49      104053.42      103749.46     -191.06879      1078.2191      748.80981      7454.1431      4248.2757      11702.419      170851.9       44.041618      44.041618      88.083237          16000 
     10000   3635.7536      99522.663      62.673683      100340.55      98060.805      100166.64      1816.9306      508.19821     -398.35879      7518.8587      4367.6513      11886.51       171203.08      44.071773      44.071773      88.143547          16000 
Loop time of 62.6737 on 8 procs for 10000 steps with 16000 atoms

Performance: 6.893 ns/day, 3.482 hours/ns, 159.557 timesteps/s
61.5% CPU use with 1 MPI tasks x 8 OpenMP threads

MPI task timing breakdown:
Section |  min time  |  avg time  |  max time  |%varavg| %total
---------------------------------------------------------------
Pair    | 59.741     | 59.741     | 59.741     |   0.0 | 95.32
Neigh   | 0.092886   | 0.092886   | 0.092886   |   0.0 |  0.15
Comm    | 0.34602    | 0.34602    | 0.34602    |   0.0 |  0.55
Output  | 0.021654   | 0.021654   | 0.021654   |   0.0 |  0.03
Modify  | 2.2255     | 2.2255     | 2.2255     |   0.0 |  3.55
Other   |            | 0.2468     |            |       |  0.39

Nlocal:          16000 ave       16000 max       16000 min
Histogram: 1 0 0 0 0 0 0 0 0 0
Nghost:          13602 ave       13602 max       13602 min
Histogram: 1 0 0 0 0 0 0 0 0 0
Neighs:              0 ave           0 max           0 min
Histogram: 1 0 0 0 0 0 0 0 0 0
FullNghs:  1.37279e+06 ave 1.37279e+06 max 1.37279e+06 min
Histogram: 1 0 0 0 0 0 0 0 0 0

Total # of neighbors = 1372788
Ave neighs/atom = 85.79925
Neighbor list builds = 300
Dangerous builds = 0
run  990000
Per MPI rank memory allocation (min/avg/max) = 15.97 | 15.97 | 15.97 Mbytes
   Step          Temp          Press           CPU            Pxx            Pyy            Pzz            Pxy            Pxz            Pyz           KinEng         PotEng         TotEng         Volume           Lx             Ly             Lz          Atoms   
     10000   3635.7536      99522.663      0              100340.55      98060.805      100166.64      1816.9306      508.19821     -398.35879      7518.8587      4367.6513      11886.51       171203.08      44.071773      44.071773      88.143547          16000 
     11000   3634.8637      102552.93      6.2599245      102160.01      103007.65      102491.13     -1572.8941     -511.41311      1732.793       7517.0182      4212.347       11729.365      170848.59      44.041334      44.041334      88.082669          16000 
     12000   3595.4387      101958.2       12.519966      101249.84      102518.97      102105.79      330.50081      682.37938      1531.3314      7435.4861      4347.5272      11783.013      171063.99      44.059835      44.059835      88.11967           16000 
     13000   3584.762       100050.52      18.779188      99099.12       100314.98      100737.47      932.78798      164.00342     -836.12916      7413.4063      4385.5819      11798.988      171249.73      44.075776      44.075776      88.151552          16000 
     14000   3553.9897      98504.539      25.037728      98155.939      99203.007      98154.671     -1013.1905     -2213.8461      927.46182      7349.7681      4334.1837      11683.952      171142.75      44.066596      44.066596      88.133193          16000 
     15000   3582.4195      96869.77       31.296542      97326.72       96860.24       96422.35       1001.9705     -99.648287     -1.9669719      7408.5621      4346.689       11755.251      171338.43      44.083385      44.083385      88.166769          16000 
     16000   3579.1735      99118.838      37.556364      99496.932      99542.302      98317.281      2239.4425     -392.24601      2222.848       7401.849       4208.2641      11610.113      171051.04      44.058724      44.058724      88.117447          16000 
     17000   3623.0246      100720.42      43.814821      99726.129      100392.3       102042.84      843.03766     -108.96509     -644.22264      7492.5347      4322.7013      11815.236      171169.62      44.068902      44.068902      88.137803          16000 
     18000   3607.4939      101541.9       50.073472      102013.48      101497.39      101114.84      983.444        944.38583     -792.5367       7460.4166      4456.0344      11916.451      171082.84      44.061453      44.061453      88.122906          16000 
     19000   3641.9479      100170.34      56.334074      99317.261      101370.03      99823.718     -443.41921      1075.0848      1444.0807      7531.6686      4182.0431      11713.712      170961.33      44.05102       44.05102       88.102039          16000 
     20000   3569.7964      97353.247      62.592605      99015.421      96126.082      96918.24       2038.3068      153.8182      -487.91351      7382.4569      4397.7449      11780.202      171436.81      44.09182       44.09182       88.183641          16000 
     21000   3568.9948      97629.376      68.851465      97536.775      98650.534      96700.819      401.91907      23.937303     -3840.7365      7380.7993      4324.5354      11705.335      171372.45      44.086302      44.086302      88.172604          16000 
     22000   3580.6064      92819.329      75.110147      94197.991      92264.468      91995.526     -547.81566      1360.4438      1852.0629      7404.8124      4330.9632      11735.776      171744.13      44.118151      44.118151      88.236302          16000 
     23000   3581.5668      100014.38      81.369888      101039.31      98517.634      100486.2       389.89078     -387.35325     -174.49678      7406.7985      4209.6869      11616.485      171056.4       44.059184      44.059184      88.118367          16000 
     24000   3615.9526      98485.598      87.628483      99465.67       98614.68       97376.443      760.12064     -1016.8885      1439.1215      7477.9094      4292.5054      11770.415      171188.42      44.070516      44.070516      88.141031          16000 
     25000   3620.0982      99274.821      93.88809       98066.804      100040.81      99716.852      1798.2693     -1503.4458      57.576423      7486.4829      4259.7065      11746.189      171163.73      44.068396      44.068396      88.136793          16000 
     26000   3599.71        98998.957      100.14722      99476.202      97634.537      99886.132     -906.55877     -1100.8357      1439.3409      7444.3192      4244.7558      11689.075      171159.48      44.068032      44.068032      88.136063          16000 
     27000   3582.0074      99564.259      106.40495      100261.03      99298.024      99133.727      1027.8886      217.02205     -3342.3217      7407.7096      4384.1228      11791.832      171180.05      44.069797      44.069797      88.139594          16000 
     28000   3567.0071      101000.04      112.66461      101195.11      101287.55      100517.45     -694.39218     -377.88421      834.64706      7376.6885      4309.1652      11685.854      170966.74      44.051484      44.051484      88.102969          16000 
     29000   3584.0781      96261.867      118.92421      97151.505      94955.159      96678.937     -377.52235     -162.15215      1034.8499      7411.9919      4375.2936      11787.286      171428.24      44.091085      44.091085      88.18217           16000 
     30000   3559.9778      98586.934      125.18397      98542.485      97492.707      99725.609     -2427.1269     -1448.1078      2002.0252      7362.1517      4243.0105      11605.162      171122.87      44.064889      44.064889      88.129779          16000 
     31000   3600.6287      96177.786      131.44207      97809.829      95702.028      95021.502      11.985073     -1362.9889      270.74102      7446.2192      4323.2727      11769.492      171454.5       44.093336      44.093336      88.186673          16000 
     32000   3586.307       99786.891      137.70093      100459.85      98426.265      100474.55     -256.47123     -3669.0142      869.33148      7416.6015      4227.329       11643.93       171081.39      44.061329      44.061329      88.122658          16000 
     33000   3592.1094      100485.5       143.96062      100995.36      100058.61      100402.53      696.81237     -1368.6288      429.10012      7428.6009      4293.9476      11722.549      171065.74      44.059985      44.059985      88.119971          16000 
     34000   3618.1983      101577.26      150.2195       101741.05      100726.81      102263.9      -785.69718     -765.73284      1121.4961      7482.5536      4257.1738      11739.727      171115.96      44.064296      44.064296      88.128593          16000 
     35000   3669.4177      98582.126      156.47735      97903.496      99151.893      98690.987     -533.36089     -1717.9619      920.88664      7588.477       4221.3002      11809.777      171241.08      44.075034      44.075034      88.150067          16000 
     36000   3599.8285      102743.68      162.73738      102814.11      102099.3       103317.62     -1035.6378     -210.13336     -130.02683      7444.5643      4263.7321      11708.296      170785.7       44.035929      44.035929      88.071859          16000 
     37000   3606.6859      101367.81      168.99675      100601.04      102773.1       100729.29      296.05209     -914.61749     -883.74586      7458.7458      4375.1139      11833.86       171133.25      44.065781      44.065781      88.131562          16000 
     38000   3595.9768      100433.6       175.25567      100429.9       99753.531      101117.36      953.43163      536.40563      2719.083       7436.5989      4351.3977      11787.997      171061.62      44.059632      44.059632      88.119263          16000 
     39000   3587.3156      99913.092      181.51383      99283.563      100575.36      99880.352      889.45842      736.42717     -1499.9332      7418.6872      4261.252       11679.939      171026.84      44.056645      44.056645      88.113291          16000 
     40000   3595.6978      99288.084      187.77355      100302.62      98102.542      99459.085      687.93366      109.25424     -622.18193      7436.0219      4362.6903      11798.712      171309.78      44.080927      44.080927      88.161854          16000 
     41000   3561.7167      97891.29       194.03248      98271.087      97505.338      97897.446     -168.7164      -544.85349      2413.827       7365.7478      4342.7117      11708.459      171267.11      44.077267      44.077267      88.154534          16000 
     42000   3557.3832      99320.362      200.29277      99439.415      98580.428      99941.242      572.06239     -583.32111     -1282.391       7356.7861      4255.9696      11612.756      171202.22      44.0717        44.0717        88.1434            16000 
     43000   3603.8399      98067.866      206.55158      98408.046      96777.223      99018.329     -27.718749     -706.1461      -2364.2139      7452.8602      4267.8724      11720.733      171271.06      44.077606      44.077606      88.155212          16000 
     44000   3585.2664      98459.259      212.81046      97967.667      98793.278      98616.83      -1455.2234     -336.18041      825.55611      7414.4494      4319.8853      11734.335      171231.27      44.074192      44.074192      88.148384          16000 
     45000   3615.1155      101842.89      219.06872      102038.97      100461.91      103027.79      569.80095      1232.7277     -856.64446      7476.1784      4368.5577      11844.736      170942.39      44.049393      44.049393      88.098786          16000 
     46000   3634.0742      101689.83      225.32546      100686.88      103786.45      100596.16     -834.56787     -1277.9994     -1217.6636      7515.3855      4327.0022      11842.388      171090.69      44.062127      44.062127      88.124255          16000 
     47000   3605.8243      100268.39      231.58397      99593.212      100232.99      100978.96      821.54396      715.23192      699.84212      7456.9639      4224.6903      11681.654      170962.01      44.051078      44.051078      88.102155          16000 
     48000   3551.0692      101444.05      237.84317      102089.31      100726.91      101515.91      2220.2983     -588.3044      -63.799378      7343.7285      4328.7238      11672.452      170987.13      44.053235      44.053235      88.106471          16000 
     49000   3613.917       97882.762      244.10165      96929.266      98474.259      98244.761     -3101.9075     -1030.8518     -895.31762      7473.6998      4365.2259      11838.926      171410.19      44.089538      44.089538      88.179075          16000 
     50000   3586.1068      94814.358      250.3604       95135.514      93821.795      95485.766     -1079.5815      498.4416      -255.63879      7416.1873      4310.3704      11726.558      171556.3       44.102061      44.102061      88.204123          16000 
     51000   3566.8809      98136.275      256.6191       98068.771      98457.433      97882.621     -1066.0992     -40.887129      1101.7765      7376.4276      4316.4743      11692.902      171271.9       44.077677      44.077677      88.155355          16000 
     52000   3599.8903      100932.14      262.87874      101571.47      100987.33      100237.62     -1480.5105      589.55476      1658.7293      7444.6922      4340.6004      11785.293      171068.21      44.060197      44.060197      88.120394          16000 
     53000   3585.5978      102013.11      269.13985      104168.27      101737.13      100133.92      586.2252       962.27882     -462.62093      7415.1349      4294.616       11709.751      170924.78      44.04788       44.04788       88.09576           16000 
     54000   3593.6832      100432.16      275.40005      99790.285      100636.3       100869.91     -985.77573      1333.4209     -550.6276       7431.8557      4376.0579      11807.914      171084.24      44.061574      44.061574      88.123147          16000 
     55000   3583.1693      103440.98      281.66327      103072.67      103023.86      104226.42     -1607.3759      2953.0644     -1109.1887      7410.1127      4307.2199      11717.333      170900.04      44.045754      44.045754      88.091509          16000 
     56000   3594.5309      103149.87      287.92331      103202.86      103224.18      103022.58     -2163.63        791.62935      785.78192      7433.6086      4404.6897      11838.298      170953.21      44.050322      44.050322      88.100643          16000 
     57000   3606.2724      102800.42      294.18434      102607.07      103403.75      102390.43      428.98123      626.90596     -1232.2578      7457.8906      4269.7756      11727.666      170919.83      44.047455      44.047455      88.09491           16000 
     58000   3595.9582      103209.09      300.44595      102730.96      103292.36      103603.96     -918.75448     -437.17096     -1646.3952      7436.5605      4327.5224      11764.083      170869.69      44.043147      44.043147      88.086294          16000 
     59000   3616.8504      103735.1       306.70601      103443.85      102726.22      105035.21     -590.1159       981.364       -137.05562      7479.7663      4323.3075      11803.074      170907.54      44.046399      44.046399      88.092798          16000 
     60000   3603.2661      100222.03      312.96781      100704.85      100884.2       99077.045     -106.35477      720.63663      289.31278      7451.6735      4303.2444      11754.918      171109.87      44.063774      44.063774      88.127548          16000 
     61000   3608.5037      98810.467      319.23152      98538.901      96937.59       100954.91     -1251.5008      372.55957      947.20782      7462.5049      4219.9114      11682.416      171081.49      44.061337      44.061337      88.122674          16000 
     62000   3588.035       97137.767      325.49217      97620.216      97607.832      96185.252      390.89597      201.60657      1039.3178      7420.1749      4279.0737      11699.249      171395.31      44.088262      44.088262      88.176524          16000 
     63000   3533.8024      97092.81       331.7551       96465.575      97020.768      97792.086     -719.90595     -1250.3485     -69.890342      7308.0203      4279.2566      11587.277      171249.98      44.075797      44.075797      88.151595          16000 
     64000   3578.265       99558.047      338.01616      99620.678      98504.949      100548.51      886.35814     -805.90585     -60.762594      7399.9704      4319.6354      11719.606      171086.8       44.061794      44.061794      88.123587          16000 
     65000   3609.863       96644.328      344.28235      95995.585      96879.814      97057.586      178.27071      1379.695      -2671.1204      7465.316       4466.2903      11931.606      171485.62      44.096004      44.096004      88.192008          16000 
     66000   3577.4356      98234.227      350.54492      98900.763      97447.61       98354.309     -476.73999     -909.70068      189.90612      7398.2552      4341.8348      11740.09       171196.36      44.071197      44.071197      88.142394          16000 
     67000   3598.1581      101970.69      356.81314      104491.54      101065.02      100355.5       294.76848     -1024.4163     -92.53871       7441.1099      4376.1707      11817.281      170959.95      44.050901      44.050901      88.101801          16000 
     68000   3615.5198      103550.77      363.07821      101960         105044.12      103648.18      115.93171      1354.7042     -982.73859      7477.0145      4296.4518      11773.466      170829.71      44.039712      44.039712      88.079425          16000 
     69000   3603.0585      102988.02      369.344        103439.75      102323.83      103200.46     -1216.2146     -1691.5368      101.19128      7451.2441      4379.4148      11830.659      170869         44.043088      44.043088      88.086176          16000 
     70000   3607.2975      102714.42      375.60968      102531.22      104169.54      101442.5      -2411.7402     -295.92616      207.88001      7460.0104      4344.7082      11804.719      170978.61      44.052504      44.052504      88.105008          16000 
     71000   3615.8511      99402.927      381.87526      99850.926      97747.301      100610.55      667.14423      230.0799       345.15628      7477.6996      4449.8642      11927.564      171283.97      44.078713      44.078713      88.157427          16000 
     72000   3599.0171      99405.766      388.13958      99063.855      99041.84       100111.6      -302.50779     -1802.0152     -1110.0358      7442.8863      4303.2335      11746.12       171161.4       44.068196      44.068196      88.136393          16000 
     73000   3629.8953      96008.736      394.40803      98007.125      95856.245      94162.837     -1329.1976     -907.55843      2275.3649      7506.7435      4366.9906      11873.734      171585.5       44.104563      44.104563      88.209127          16000 
     74000   3594.5117      98620.429      400.67715      98387.054      99102.242      98371.992     -200.24399      4281.6598      462.88227      7433.5691      4271.7425      11705.312      171208.38      44.072228      44.072228      88.144457          16000 
     75000   3579.0875      99489.652      406.94523      99888.44       98706.495      99874.02      -1738.0528      2401.4461     -373.38514      7401.6714      4257.0845      11658.756      171083.18      44.061483      44.061483      88.122965          16000 
     76000   3600.7547      100830.84      413.2137       101438.54      100126.74      100927.25     -1281.4697      315.42188      3656.5714      7446.4797      4344.4069      11790.887      171127.56      44.065292      44.065292      88.130584          16000 
     77000   3594.0341      97547.502      419.48186      95933.545      97752.264      98956.696      249.67803      653.08681     -1489.2393      7432.5813      4294.4638      11727.045      171197.33      44.07128       44.07128       88.14256           16000 
     78000   3583.5837      100149.76      425.7494       100770.28      100457.44      99221.554      564.99206     -936.16015      28.783173      7410.9696      4259.009       11669.979      170972.81      44.052005      44.052005      88.10401           16000 
     79000   3618.4181      101548.05      432.01895      102566.67      100183.9       101893.6       1194.8789     -1598.8678     -1461.4452      7483.0083      4294.4354      11777.444      170978.48      44.052492      44.052492      88.104985          16000 
     80000   3587.5201      102732.32      438.28631      103807.51      102724.61      101664.85     -1235.1206     -522.64282      2337.1709      7419.1102      4355.5488      11774.659      170789.78      44.03628       44.03628       88.072561          16000 
     81000   3600.4602      101171.79      444.55683      99434.138      101883.48      102197.75      756.00622      53.708038      129.89833      7445.8707      4316.7888      11762.66       170999.14      44.054267      44.054267      88.108533          16000 
     82000   3585.4761      100021.13      450.82578      100786.28      99995.961      99281.155      1883.3496     -711.39567      954.99387      7414.8831      4340.8334      11755.716      171116.33      44.064328      44.064328      88.128656          16000 
     83000   3551.292       99974.718      457.09347      100444.97      98800.659      100678.52     -2175.4593     -2563.1942      264.58213      7344.1894      4161.126       11505.315      170920.09      44.047477      44.047477      88.094954          16000 
     84000   3601.345       99588.158      463.36323      99331.611      99295.655      100137.21      2213.6277     -854.53987     -793.68292      7447.7005      4335.0343      11782.735      171107.66      44.063584      44.063584      88.127169          16000 
     85000   3612.4478      99442.318      469.63398      100314.16      97793.003      100219.79      1642.2501     -402.95135     -764.12262      7470.6615      4264.3664      11735.028      171218.4       44.073088      44.073088      88.146177          16000 
     86000   3624.7898      95246.406      475.90328      95529.427      93536.726      96673.065     -1174.2792      158.88654      425.0671       7496.1851      4413.3596      11909.545      171590.59      44.105         44.105         88.21              16000 
     87000   3602.4107      97783.921      482.17472      98424.522      97133.558      97793.683      491.55373      1584.8568      630.38997      7449.9045      4248.3886      11698.293      171250.84      44.075872      44.075872      88.151743          16000 
     88000   3557.8333      99313.948      488.44218      99191.837      99275.733      99474.274      2204.7537     -2579.8076     -601.89409      7357.7168      4319.6943      11677.411      171124.59      44.065037      44.065037      88.130074          16000 
     89000   3580.6054      99635.684      494.71193      100036.89      99034.833      99835.33       2508.553      -171.57381     -528.93588      7404.8103      4355.4784      11760.289      171222.77      44.073463      44.073463      88.146927          16000 
     90000   3611.3847      96167.379      500.98268      94901.328      96943.548      96657.26       57.126326     -346.48345      844.94799      7468.463       4303.3743      11771.837      171456.09      44.093473      44.093473      88.186947          16000 
     91000   3582.6111      97657.452      507.25352      97366.685      97215.918      98389.753      1120.276      -492.81071      906.15617      7408.9582      4261.0298      11669.988      171245.32      44.075398      44.075398      88.150795          16000 
     92000   3591.8931      95696.068      513.52474      94520.596      95845.353      96722.256     -1391.2884     -215.06562      1890.9271      7428.1537      4319.9315      11748.085      171487.81      44.096192      44.096192      88.192383          16000 
     93000   3556.392       98242.63       519.80447      97505.165      97921.334      99301.391     -38.792337     -614.95851     -128.5938       7354.7362      4312.0281      11666.764      171340.4       44.083553      44.083553      88.167106          16000 
     94000   3591.081       95483.566      526.08449      95066.371      95038.566      96345.761      1217.2256     -2461.8239      2308.8249      7426.4743      4367.1243      11793.599      171528.71      44.099697      44.099697      88.199394          16000 
     95000   3596.7784      100311.55      532.35863      100295.55      99870.946      100768.16      1635.3996      740.89309     -300.64117      7438.2567      4352.2021      11790.459      171117.37      44.064418      44.064418      88.128835          16000 
     96000   3596.9456      100190.18      538.63684      98661.401      101518.03      100391.12      398.55321     -113.21968      948.73872      7438.6025      4340.5933      11779.196      171093.94      44.062406      44.062406      88.124812          16000 
     97000   3593.4253      100308.97      544.91294      100153.92      100149.71      100623.26      2777.8011     -736.54773     -1747.3015      7431.3224      4291.9788      11723.301      171129.19      44.065432      44.065432      88.130863          16000 
     98000   3597.0342      98877.041      551.19201      99820.302      98519.237      98291.583      1799.6588     -910.84748     -556.9095       7438.7857      4253.8463      11692.632      171113.92      44.064122      44.064122      88.128243          16000 
     99000   3575.9715      97751.508      557.46827      98173.571      96905.529      98175.424     -222.49737     -1122.4679     -804.85511      7395.2274      4211.8759      11607.103      171149.69      44.067192      44.067192      88.134383          16000 
    100000   3599.2019      96210.801      563.74868      96024.696      96739.962      95867.744     -1748.6469      1563.5605      473.3486       7443.2684      4304.7082      11747.977      171453.22      44.093227      44.093227      88.186454          16000 
    101000   3594.4936      100826.68      570.02097      101100.38      100427.11      100952.54     -4447.4465      1681.0103      487.85932      7433.5317      4228.7906      11662.322      171013.83      44.055529      44.055529      88.111057          16000 
    102000   3608.7307      101911.29      576.30191      101000.37      101659.34      103074.15      1858.0942      1812.8954      1873.9558      7462.9743      4324.7174      11787.692      170930.7       44.048388      44.048388      88.096776          16000 
    103000   3599.1504      103590.57      582.58288      102932.31      102926.95      104912.44     -1892.2762      1149.5906     -811.40164      7443.1621      4310.3148      11753.477      170837.22      44.040357      44.040357      88.080714          16000 
    104000   3623.984       104503.98      588.8565       104435.84      106439.33      102636.79      941.82649     -520.43475     -229.28646      7494.5187      4288.5675      11783.086      170793.03      44.03656       44.03656       88.07312           16000 
    105000   3603.1967      101636.78      595.13172      102073.99      101450.74      101385.62      1290.7163     -1073.038       215.04986      7451.5299      4374.1431      11825.673      171081.01      44.061296      44.061296      88.122593          16000 
    106000   3620.1259      100668.74      601.40847      100456.06      99555.067      101995.1       738.25666      2404.7281      1114.8773      7486.5401      4310.6138      11797.154      171057.6       44.059286      44.059286      88.118573          16000 
    107000   3601.4897      100159.56      607.68489      100519.44      99220.4        100738.83     -2191.563      -1500.3385      921.46669      7447.9998      4460.0269      11908.027      171236.8       44.074667      44.074667      88.149334          16000 
    108000   3568.0219      95018.851      613.95625      96834.717      94431.277      93790.561     -760.10149      565.53098      892.96624      7378.7873      4369.7787      11748.566      171508.99      44.098007      44.098007      88.196015          16000 
    109000   3604.3188      95237.718      620.23238      94862.69       95728.919      95121.546     -756.9738       300.18466      2950.0424      7453.8504      4237.0044      11690.855      171459.93      44.093802      44.093802      88.187604          16000 
    110000   3586.9707      97768.954      626.50453      96829.527      97475.845      99001.489     -1324.7752     -1793.216      -891.17245      7417.9739      4254.8722      11672.846      171260.21      44.076675      44.076675      88.15335           16000 
    111000   3569.8375      97404.705      632.77923      98346.263      97372.203      96495.65       1414.8228      524.90636      252.68538      7382.542       4293.0063      11675.548      171365         44.085663      44.085663      88.171326          16000 
    112000   3577.5669      99500.961      639.04545      98793.002      100245.66      99464.22       263.32789     -2212.6977     -159.76381      7398.5267      4196.9101      11595.437      171029.53      44.056876      44.056876      88.113752          16000 
    113000   3617.3         99969.407      645.31153      100195.46      98518.343      101194.42      1734.7484     -1050.3456      780.37313      7480.6959      4340.6637      11821.36       171084.65      44.061609      44.061609      88.123218          16000 
    114000   3589.5636      100790.43      651.57665      99360.887      101250.92      101759.48      2650.4318     -102.39078      1419.9562      7423.3363      4401.6558      11824.992      171052.5       44.058848      44.058848      88.117697          16000 
    115000   3555.2674      102189.19      657.8402       103296.43      100668.1       102603.04     -934.40425      988.08965     -199.99418      7352.4104      4297.3807      11649.791      170942.21      44.049377      44.049377      88.098754          16000 
    116000   3608.7211      98486.381      664.10579      99061.634      97033.085      99364.425      131.10317     -1133.9652      1044.4555      7462.9545      4316.3079      11779.262      171387.26      44.087571      44.087571      88.175143          16000 
    117000   3607.7571      99290.051      670.37334      98712.013      99285.047      99873.094     -138.81259     -762.82217      1493.8737      7460.961       4316.432       11777.393      171208.42      44.072231      44.072231      88.144463          16000 
    118000   3598.8206      99861.024      676.63681      100710.73      100111.58      98760.763     -1048.484       851.60334      240.641        7442.4799      4323.7112      11766.191      171196.34      44.071195      44.071195      88.142389          16000 
    119000   3625.5496      97989.498      682.90258      96277.571      98636.635      99054.286      892.91762      1472.0512     -1313.3981      7497.7565      4173.1741      11670.931      171243.99      44.075283      44.075283      88.150566          16000 
    120000   3641.3691      94192.158      689.16842      95475.004      93096.875      94004.595      1114.4494      283.93921      110.08508      7530.4716      4271.3796      11801.851      171657.35      44.110719      44.110719      88.221438          16000 
    121000   3609.2405      96858.419      695.43157      96576.606      96510.84       97487.81       1823.6844     -411.24745      964.59691      7464.0288      4318.3553      11782.384      171406.21      44.089197      44.089197      88.178393          16000 
    122000   3597.1413      97635.279      701.69384      98391.735      96950.328      97563.774      1128.7954     -1597.3262     -476.48922      7439.0071      4264.1789      11703.186      171244.93      44.075364      44.075364      88.150728          16000 
    123000   3583.9025      99406.606      707.95637      98406.595      100477.35      99335.873     -505.86392      312.82297     -912.63644      7411.6288      4336.1268      11747.756      171163.36      44.068365      44.068365      88.13673           16000 
    124000   3603.6752      100540.15      714.2176       100093.62      100836.48      100690.37     -836.37087      387.14542      119.95314      7452.5194      4334.2206      11786.74       171046.29      44.058315      44.058315      88.116631          16000 
    125000   3594.6934      99715.411      720.47823      100190.16      98680.826      100275.25      1040.4623     -1590.9504      1611.968       7433.9448      4239.3459      11673.291      170918.54      44.047344      44.047344      88.094687          16000 
    126000   3628.9457      101249.37      726.73846      100881.44      100177.58      102689.09     -1954.1562      93.099955     -2128.0794      7504.7796      4394.1416      11898.921      171143.62      44.066671      44.066671      88.133341          16000 
    127000   3577.8759      102071.99      732.99821      102254.68      101861.03      102100.25      907.54807      681.67156      120.68072      7399.1657      4359.4689      11758.635      170930.78      44.048395      44.048395      88.09679           16000 
    128000   3586.8156      100795.89      739.25889      100757.43      100457.18      101173.07     -372.41382      2581.7481     -1429.0608      7417.6533      4327.8752      11745.528      171026.37      44.056605      44.056605      88.11321           16000 
    129000   3564.8046      100165.08      745.51979      99876.462      99518.918      101099.86     -853.44595     -211.29091      507.16438      7372.1337      4313.0262      11685.16       171166.17      44.068606      44.068606      88.137212          16000 
    130000   3611.5364      98139.561      751.78131      97370.341      97601.651      99446.691      97.825245     -759.92804      1285.04        7468.7766      4254.4862      11723.263      171280.01      44.078373      44.078373      88.156747          16000 
    131000   3602.1794      98357.183      758.04741      96374.633      101532.38      97164.532     -415.88393      932.13551     -1694.8114      7449.4262      4316.0693      11765.496      171315.84      44.081447      44.081447      88.162894          16000 
    132000   3576.4818      100663.93      764.31347      101244.6       101365.95      99381.239      694.44973     -713.7219       990.01401      7396.2825      4322.9747      11719.257      171078.5       44.061081      44.061081      88.122161          16000 
    133000   3588.1974      103128.66      770.58033      102003.9       103206.14      104175.95     -122.98289      791.50959     -412.58265      7420.5108      4354.4646      11774.975      170944.36      44.049562      44.049562      88.099124          16000 
    134000   3638.7451      101746         776.84712      102792.74      100489.9       101955.37     -250.2378      -458.95032     -157.64058      7525.0451      4391.3684      11916.413      171066.4       44.060042      44.060042      88.120085          16000 
    135000   3600.7406      102668.86      783.11851      103502.2       102591.93      101912.45     -1908.3197     -2595.4071     -375.14968      7446.4506      4364.7782      11811.229      171021.38      44.056176      44.056176      88.112353          16000 
    136000   3576.8837      99798.763      789.39065      100642.7       98847.901      99905.691     -990.648       -2372.5008     -1376.8813      7397.1138      4221.3424      11618.456      171029.29      44.056856      44.056856      88.113711          16000 
    137000   3597.0213      97885.152      795.66472      97397.509      98364.302      97893.645      533.70227     -527.88954      30.057076      7438.759       4371.4488      11810.208      171376.07      44.086612      44.086612      88.173225          16000 
    138000   3571.242       99424.609      801.93695      97730.319      99873.198      100670.31      1106.6904     -1103.9119     -683.25006      7385.4465      4294.5099      11679.956      171071.61      44.060489      44.060489      88.120979          16000 
    139000   3610.7108      98268.996      808.22026      98756.701      98001.008      98049.28      -1801.8926      1280.0096     -937.57128      7467.0692      4357.8803      11824.95       171326.31      44.082345      44.082345      88.164689          16000 
    140000   3604.7459      105209.59      814.49293      104600.93      105371.95      105655.89      485.2098      -1762.8168     -2178.5745      7454.7336      4328.9499      11783.683      170730.53      44.031188      44.031188      88.062375          16000 
    141000   3641.2482      102309.05      820.76618      102045.48      101084.01      103797.65     -2258.9352      3317.6103     -616.32776      7530.2216      4366.636       11896.858      170996.65      44.054053      44.054053      88.108106          16000 
    142000   3592.9658      107885.57      827.03904      107259.02      106858.03      109539.67      113.5516       171.73171     -1159.1649      7430.372       4334.0447      11764.417      170460.78      44.007986      44.007986      88.015972          16000 
    143000   3594.3777      101498.83      833.31362      102061.3       100898.36      101536.82     -920.01541      951.58843      860.53638      7433.2919      4449.338       11882.63       171123.76      44.064966      44.064966      88.129932          16000 
    144000   3623.4745      101560.73      839.58629      100843.96      101830.89      102007.35      1294.2402      1706.7337      705.75624      7493.465       4377.2311      11870.696      171113.86      44.064117      44.064117      88.128233          16000 
    145000   3637.0698      103144.62      845.86076      102964.09      102774.89      103694.89      902.13823      176.84672      2296.3036      7521.5805      4270.0395      11791.62       170892.72      44.045126      44.045126      88.090251          16000 
    146000   3625.2813      103040.83      852.13209      102584.29      103686.42      102851.78     -1011.6281     -460.25656      560.02868      7497.2016      4398.4968      11895.698      170973.88      44.052097      44.052097      88.104195          16000 
    147000   3566.2775      107222.41      858.40451      107217.5       108079.81      106369.92     -589.20379      838.36307     -1265.57        7375.1798      4424.0679      11799.248      170516.88      44.012813      44.012813      88.025626          16000 
    148000   3638.7582      102409.6       864.67982      102618.26      102691.74      101918.81      952.47553      832.80035     -1128.6487      7525.0723      4340.1688      11865.241      170920.61      44.047521      44.047521      88.095043          16000 
    149000   3598.1105      103456.54      870.95406      102646.02      104960.19      102763.41      452.24992     -1879.4098     -3532.1712      7441.0115      4339.2544      11780.266      170873.3       44.043457      44.043457      88.086915          16000 
    150000   3597.2982      100313.18      877.22779      101584.41      98291.257      101063.86      725.69092      2037.0743      999.07256      7439.3317      4361.389       11800.721      171201.31      44.071621      44.071621      88.143243          16000 
    151000   3626.3696      99872.368      883.50137      100139.7       99278.132      100199.28      1227.9051      1959.5034     -156.40094      7499.4523      4238.7754      11738.228      171132.54      44.065719      44.065719      88.131439          16000 
    152000   3617.8704      100089.5       889.77426      100287.36      99934.469      100046.68      1926.7255     -2437.6081      933.7606       7481.8755      4303.5758      11785.451      171163.27      44.068357      44.068357      88.136714          16000 
    153000   3600.3084      100812.59      896.04606      100174.4       100958.9       101304.47     -14.085258      541.21944      559.77911      7445.5569      4341.3873      11786.944      171188.69      44.070538      44.070538      88.141077          16000 
    154000   3564.3454      97267.607      902.3143       96326.529      99075.823      96400.47      -401.41378      1520.0527     -2572.4373      7371.1842      4297.9427      11669.127      171313.1       44.081212      44.081212      88.162424          16000 
    155000   3666.8266      96929.807      908.58618      97804.448      97605.825      95379.149      778.0773       1209.3755     -1453.835       7583.1186      4281.0155      11864.134      171404.7       44.089067      44.089067      88.178134          16000 
    156000   3580.619       102888.78      914.86032      103446.47      103006.22      102213.66      1932.5239     -135.28877     -1403.0758      7404.8386      4298.1268      11702.965      170826.66      44.039449      44.039449      88.078899          16000 
    157000   3663.6847      100487.22      921.13479      101091.35      100632.69      99737.621      1030.8565      1013.8625     -678.26884      7576.6211      4278.0476      11854.669      171154.41      44.067597      44.067597      88.135194          16000 
    158000   3612.3985      100801.17      927.40953      99217.379      101122.96      102063.18     -1479.778       137.92823      717.61835      7470.5595      4375.9286      11846.488      171201.16      44.071608      44.071608      88.143217          16000 
    159000   3576.2655      101681.38      933.68365      100989.88      102066.51      101987.74     -1185.8822     -342.52959      548.59111      7395.8353      4367.2781      11763.113      170999.79      44.054322      44.054322      88.108645          16000 
    160000   3604.749       101534.19      939.95683      101434.62      101116.63      102051.32     -1478.7908     -464.58572     -1130.2036      7454.74        4402.2173      11856.957      171016.51      44.055759      44.055759      88.111517          16000 
    161000   3619.0213      100165.46      946.2301       100709.02      99847.998      99939.365     -720.33207     -1009.3087      268.48302      7484.2557      4308.8206      11793.076      171026.26      44.056596      44.056596      88.113191          16000 
    162000   3636.5461      103771.49      952.50568      103684.69      104080.2       103549.59     -1558.136      -1741.7206      2714.2281      7520.4977      4354.8313      11875.329      170920.35      44.0475        44.0475        88.095             16000 
    163000   3642.3897      105917.31      958.78206      105925.09      104797.35      107029.49      1479.7063     -1446.2805     -518.85262      7532.5824      4243.7077      11776.29       170618.72      44.021574      44.021574      88.043147          16000 
    164000   3638.5979      100166.67      965.05653      99270.182      100132.58      101097.26      803.46809      1345.3395     -1642.88        7524.7408      4363.3801      11888.121      171096.68      44.062642      44.062642      88.125284          16000 
    165000   3623.8855      102747.27      971.33276      102483.1       103344.5       102414.21     -1060.5218     -209.58552     -3678.0798      7494.3149      4303.7864      11798.101      170883.65      44.044347      44.044347      88.088694          16000 
    166000   3632.9166      101363.3       977.60644      102250.85      100569.95      101269.09      2680.192       686.96107     -3112.2182      7512.9916      4359.3539      11872.346      171017.73      44.055863      44.055863      88.111726          16000 
    167000   3572.119       102579.88      983.88256      103989.45      103449.65      100300.55      1737.8879     -3495.5733      195.98627      7387.2603      4413.9525      11801.213      170923.92      44.047806      44.047806      88.095612          16000 
    168000   3628.5945      100060.42      990.15957      101086.33      100039.49      99055.442      1186.8436     -2312.7154      1777.2283      7504.0535      4334.4183      11838.472      171095.68      44.062556      44.062556      88.125111          16000 
    169000   3592.5325      101111.21      996.43582      101893.06      100740.65      100699.92     -1024.302       249.88965      942.26642      7429.476       4351.6644      11781.14       171079.86      44.061198      44.061198      88.122396          16000 
    170000   3636.5701      99904.344      1002.7129      99958.001      101186.83      98568.206     -1622.8342      431.63324      1529.9806      7520.5472      4346.5137      11867.061      171148.39      44.06708       44.06708       88.134159          16000 
    171000   3582.7554      102434.22      1008.9883      101672.34      102757.5       102872.84      815.36179      94.524836      296.67195      7409.2566      4337.3175      11746.574      170944.21      44.049549      44.049549      88.099099          16000 
    172000   3569.9618      97584.103      1015.263       96710.853      97968.259      98073.196      323.34281      1755.4359      12.956909      7382.799       4343.7077      11726.507      171249.32      44.07574       44.07574       88.151481          16000 
    173000   3573.7688      95557.759      1021.538       94436.879      95447.505      96788.894     -154.41723      1081.5167     -1075.364       7390.6719      4275.5845      11666.256      171448.42      44.092816      44.092816      88.185631          16000 
    174000   3553.6674      95318.568      1027.8142      93534.748      96253.43       96167.526     -2229.5779      320.15523     -42.496211      7349.1017      4311.6874      11660.789      171442.41      44.0923        44.0923        88.184601          16000 
    175000   3565.8375      98835.871      1034.0904      97932.068      98644.312      99931.234     -3407.9927      1278.8138     -205.97998      7374.2698      4302.9478      11677.218      171177.05      44.06954       44.06954       88.139079          16000 
    176000   3594.0636      96405.457      1040.3643      96526.712      97161.253      95528.407     -1106.5911     -1971.4171     -2964.1496      7432.6423      4353.7696      11786.412      171387.3       44.087576      44.087576      88.175151          16000 
    177000   3572.3915      98781.196      1046.6383      98988.792      99462.527      97892.268      1420.5149      1417.9704     -154.65162      7387.8238      4395.8056      11783.629      171285.44      44.078839      44.078839      88.157679          16000 
    178000   3590.7197      100274.63      1052.9133      100016.11      101044.02      99763.754      131.00606      814.16277     -1408.4853      7425.727       4376.8646      11802.592      171158.88      44.06798       44.06798       88.13596           16000 
    179000   3652.7837      102494.22      1059.1891      103259.77      101516.56      102706.34      1649.8504      723.97956      233.88716      7554.0774      4284.7076      11838.785      170923.13      44.047738      44.047738      88.095476          16000 
    180000   3573.8519      102735.82      1065.4651      103610.53      103138.33      101458.6       2620.0219      470.18753     -184.97667      7390.844       4321.5524      11712.396      170920.98      44.047554      44.047554      88.095108          16000 
    181000   3634.1571      100946.11      1071.741       99932.924      101648.73      101256.68      1896.5425     -595.32971      2151.3569      7515.5571      4384.6961      11900.253      171181.3       44.069904      44.069904      88.139809          16000 
    182000   3622.8076      101245.32      1078.0182      100983.58      102506.47      100245.91     -1102.483       8.7760617     -573.79274      7492.0859      4306.7752      11798.861      171018.07      44.055892      44.055892      88.111784          16000 
    183000   3596.5948      103224.73      1084.2947      102810.12      104226.77      102637.28      388.13235      3.574968      -869.87275      7437.8769      4372.1154      11809.992      170961.77      44.051057      44.051057      88.102115          16000 
    184000   3640.3628      104020.66      1090.57        104162.43      103868.06      104031.49      235.47127     -1287.55       -1024.3354      7528.3906      4341.3586      11869.749      170840.04      44.0406        44.0406        88.081199          16000 
    185000   3646.7458      108872.78      1096.8441      107407.84      109413.79      109796.73     -3284.0111      713.47401     -451.62037      7541.5908      4357.363       11898.954      170463.5       44.00822       44.00822       88.016439          16000 
    186000   3613.4888      102252.79      1103.1153      101592.04      101480.29      103686.05      1006.6808      1782.2809      759.01379      7472.8144      4375.766       11848.58       171003.88      44.054674      44.054674      88.109348          16000 
    187000   3583.4412      98915.486      1109.3876      98305.591      98830.421      99610.446     -1761.1473     -531.01398      501.46783      7410.6748      4333.5939      11744.269      171134.73      44.065907      44.065907      88.131815          16000 
    188000   3608.3846      97600.535      1115.661       97569.566      98046.855      97185.184      236.5128      -265.99557     -511.24604      7462.2587      4329.5508      11791.81       171360.01      44.085235      44.085235      88.17047           16000 
    189000   3580.3374      97904.182      1121.9351      97514.256      96419.054      99779.235      1833.2636     -0.45212852    -1650.0926      7404.2562      4310.0103      11714.266      171281.15      44.078472      44.078472      88.156944          16000 
    190000   3602.1933      98901.254      1128.2105      98526.148      98656.008      99521.605     -271.07187     -1104.6976     -1730.2172      7449.4548      4341.6871      11791.142      171338.78      44.083414      44.083414      88.166828          16000 
    191000   3602.5273      100538.62      1134.4844      99554.572      101771.54      100289.74      2647.9221      2301.5416     -1006.7239      7450.1455      4363.8198      11813.965      171131.78      44.065654      44.065654      88.131309          16000 
    192000   3577.794       99648.452      1140.7595      100210.37      98623.259      100111.73     -2201.3412     -416.2129       1669.1127      7398.9963      4360.3939      11759.39       171211.21      44.072471      44.072471      88.144941          16000 
    193000   3593.6186      99005.75       1147.0338      99450.025      98249.951      99317.276     -817.49095      671.60149      308.71782      7431.7222      4312.0028      11743.725      171239.56      44.074904      44.074904      88.149807          16000 
    194000   3572.7489      99881.22       1153.3084      101760.66      99507.497      98375.507     -735.84711     -885.00789     -262.61781      7388.5629      4318.4015      11706.964      171093.59      44.062376      44.062376      88.124752          16000 
    195000   3618.4409      97496.144      1159.5778      98387.142      96796.078      97305.212     -1956.5495     -658.91745      139.17523      7483.0554      4377.3972      11860.453      171354.5       44.084763      44.084763      88.169526          16000 
    196000   3582.3876      97273.88       1165.8521      98517.574      97051.623      96252.443      505.65012      1053.7104      1292.1131      7408.496       4310.5957      11719.092      171297.9       44.079908      44.079908      88.159817          16000 
    197000   3598.7051      95368.906      1172.1278      95939.512      94299.671      95867.535      76.808807      707.09199      1170.577       7442.241       4299.9495      11742.191      171514.6       44.098488      44.098488      88.196976          16000 
    198000   3608.1841      99295.779      1178.401       98587.998      99941.246      99358.092     -793.8752      -333.65955      230.12937      7461.8439      4334.913       11796.757      171220.59      44.073276      44.073276      88.146552          16000 
    199000   3620.3861      102899.74      1184.6738      102016.43      102842.85      103839.96      1120.9903     -98.126338     -576.73432      7487.0781      4369.9693      11857.047      171052.92      44.058884      44.058884      88.117769          16000 
    200000   3635.7052      101896.09      1190.9527      100548.37      102850.43      102289.46     -774.14233      865.41868     -1289.8766      7518.7585      4331.7571      11850.516      171003.81      44.054668      44.054668      88.109336          16000 
    201000   3606.0338      101777.46      1197.2273      101222.87      102259.46      101850.06     -92.353805     -472.31618     -78.287177      7457.397       4303.5526      11760.95       170895.53      44.045367      44.045367      88.090734          16000 
    202000   3603.6375      100908.61      1203.4996      101313.97      101487.77      99924.098     -1738.7177     -165.91858      274.93078      7452.4415      4415.752       11868.193      171080.7       44.06127       44.06127       88.12254           16000 
    203000   3591.6134      104832.75      1209.7729      104841.82      105440.27      104216.15     -647.22254     -1652.3264      439.63082      7427.5752      4378.7518      11806.327      170752.54      44.03308       44.03308       88.066159          16000 
    204000   3612.0896      102101.55      1216.0424      102599.75      102101.61      101603.3       985.02621      762.14217     -756.43206      7469.9207      4417.0098      11886.931      171037.85      44.057591      44.057591      88.115182          16000 
    205000   3587.6189      98709.185      1222.3152      98225.809      99787.421      98114.324     -1422.5855      259.61171     -922.54796      7419.3145      4363.0313      11782.346      171199.74      44.071487      44.071487      88.142973          16000 
    206000   3615.4019      96697.22       1228.5897      96823.547      96830.648      96437.463      813.39771     -233.99809     -1639.6567      7476.7707      4302.4889      11779.26       171398.4       44.088527      44.088527      88.177053          16000 
    207000   3573.8622      96208.015      1234.8651      96412.194      97833.869      94377.983      316.42946     -437.90216      387.4742       7390.8651      4332.0487      11722.914      171476.45      44.095218      44.095218      88.190436          16000 
    208000   3607.8993      97227.892      1241.1395      97815.703      96340.32       97527.653     -74.947799      200.00334      14.921767      7461.255       4416.04        11877.295      171396.21      44.088339      44.088339      88.176678          16000 
    209000   3614.4081      99810.942      1247.4142      100604.8       99019.012      99809.018      51.690086     -1011.521       445.65557      7474.7154      4321.3259      11796.041      171156.09      44.067741      44.067741      88.135481          16000 
    210000   3633.9502      103021.99      1253.6898      102786.5       103546.45      102733.01      146.38724     -728.0141       456.73772      7515.1291      4304.0349      11819.164      170892.65      44.04512       44.04512       88.09024           16000 
    211000   3618.9052      101414.42      1259.9625      101826         100304.51      102112.75     -370.83292      365.86926      140.61446      7484.0156      4389.9163      11873.932      171016.89      44.055791      44.055791      88.111581          16000 
    212000   3631.8497      104090.94      1266.2373      105646.87      104110.28      102515.69     -1440.7064      466.91683      187.13057      7510.7853      4344.3011      11855.086      170801.71      44.037306      44.037306      88.074611          16000 
    213000   3652.0308      103507.26      1272.5094      103000.5       105025.26      102496.01     -688.67048     -912.05136     -674.88441      7552.5204      4263.993       11816.513      170884.44      44.044414      44.044414      88.088828          16000 
    214000   3625.3893      103267.83      1278.7848      103864.75      102562.58      103376.15     -272.67226     -2067.026       83.679061      7497.425       4280.5912      11778.016      170820.24      44.038898      44.038898      88.077796          16000 
    215000   3587.5197      99339.161      1285.0574      98096.306      100361.61      99559.573      2141.7983      1709.3191      1822.3792      7419.1092      4397.0153      11816.125      171200.39      44.071542      44.071542      88.143084          16000 
    216000   3546.9132      99088.866      1291.3342      99228.186      98571.455      99466.956     -1448.5907      2272.5186     -427.55794      7335.1338      4236.5477      11571.681      171073.07      44.060615      44.060615      88.12123           16000 
    217000   3603.8565      99825.314      1297.6124      100728.06      100309.81      98438.072     -1031.9982      1004.5497      809.81078      7452.8943      4277.4924      11730.387      171083.6       44.061518      44.061518      88.123037          16000 
    218000   3569.5064      97340.443      1303.8867      98224.061      96461.315      97335.952     -522.79308     -437.86091      9.7293133      7381.8572      4305.2808      11687.138      171362.86      44.085479      44.085479      88.170959          16000 
    219000   3561.9886      96640.182      1310.1634      98238.329      95539.45       96142.768      1629.8984     -1067.161       1875.7073      7366.3101      4177.4574      11543.768      171253.01      44.076058      44.076058      88.152115          16000 
    220000   3603.5062      95992.742      1316.4379      95559.507      96822.085      95596.633     -1947.4698     -1392.9003      1184.0743      7452.17        4369.6567      11821.827      171493.79      44.096704      44.096704      88.193408          16000 
    221000   3579.4916      101907.06      1322.7114      100768.93      102063.56      102888.71      588.89995     -562.20046      1571.3064      7402.5071      4294.9119      11697.419      170949.73      44.050023      44.050023      88.100046          16000 
    222000   3619.4973      98854.666      1328.988       97211.522      100277.45      99075.023      1219.4834      848.77023      1247.1105      7485.2401      4353.5167      11838.757      171257.56      44.076447      44.076447      88.152895          16000 
    223000   3578.4587      102413.19      1335.2553      101082.69      104131.97      102024.89     -0.49409826    -249.79205      1221.7204      7400.3708      4397.0775      11797.448      171014.21      44.055561      44.055561      88.111122          16000 
    224000   3627.2925      103593.04      1341.529       105306.48      102766.83      102705.81     -6.609313       1278.566      -234.5723       7501.3608      4235.4786      11736.839      170783.96      44.03578       44.03578       88.07156           16000 
    225000   3582.6772      104638.61      1347.8047      104955.7       104562.04      104398.11      1878.8281      12.204438     -669.88101      7409.095       4400.0857      11809.181      170710.87      44.029497      44.029497      88.058994          16000 
    226000   3619.0833      103279.15      1354.0804      103615.4       103266.02      102956.05      445.8498      -825.4119      -1663.5729      7484.384       4327.0254      11811.409      170905.36      44.046212      44.046212      88.092423          16000 
    227000   3584.5131      101687.27      1360.3543      101424.87      101597.9       102039.05      337.97665     -523.38759     -363.04069      7412.8917      4463.7654      11876.657      171009.04      44.055117      44.055117      88.110235          16000 
    228000   3567.764       99674.575      1366.6278      99852.205      99055.59       100115.93     -2651.7592     -1102.3998      1758.9378      7378.2539      4399.1693      11777.423      171213.42      44.072661      44.072661      88.145321          16000 
    229000   3534.7906      97784.072      1372.9014      97227.235      97853.692      98271.289     -1160.4694      909.10252      251.02853      7310.0639      4298.0989      11608.163      171191.94      44.070817      44.070817      88.141635          16000 
    230000   3611.1509      100732.33      1379.1753      97815.763      102229.05      102152.17     -658.92381      1423.4865     -335.78129      7467.9794      4314.1258      11782.105      171106.29      44.063467      44.063467      88.126933          16000 
    231000   3625.332       100598.15      1385.4495      100095.95      101097.13      100601.38     -2513.4792      779.20329     -728.06172      7497.3065      4338.9442      11836.251      171162.81      44.068318      44.068318      88.136636          16000 
    232000   3561.9126      102526.66      1391.7254      102881.68      100834.32      103863.98     -3238.1778      4132.0108      1233.2951      7366.153       4310.9758      11677.129      170905.7       44.046241      44.046241      88.092481          16000 
    233000   3599.6835      98821.258      1398.001       98374.96       99504.195      98584.617     -1042.2839      896.06218      309.14033      7444.2645      4365.9852      11810.25       171314.94      44.08137       44.08137       88.16274           16000 
    234000   3537.191       95420.753      1404.2775      96192.348      93710.773      96359.139      560.54184      441.1506      -330.74921      7315.028       4311.2061      11626.234      171470.11      44.094675      44.094675      88.189349          16000 
    235000   3599.4579      94453.662      1410.5525      93845.399      93476.42       96039.166     -2132.6296      1452.4149     -855.59385      7443.798       4313.8834      11757.681      171544.87      44.101082      44.101082      88.202164          16000 
    236000   3602.9154      94772.372      1416.8272      94904.648      96457.99       92954.479     -274.52702      374.59088      1752.0013      7450.9482      4351.9918      11802.94       171521.9       44.099114      44.099114      88.198228          16000 
    237000   3555.9955      101487.27      1423.1046      101456.4       101498.68      101506.72      1813.748       753.61975      144.48098      7353.9163      4413.4946      11767.411      171049.83      44.05862       44.05862       88.117239          16000 
    238000   3620.59        99349.999      1429.3787      99809.836      99128.541      99111.62       369.53173     -436.72881      1281.5885      7487.4997      4360.3999      11847.9        171137.18      44.066118      44.066118      88.132235          16000 
    239000   3574.767       100123.07      1435.6546      99973.749      100484.47      99910.982      657.34566     -1855.0972      1838.0017      7392.7363      4367.7371      11760.473      171170.11      44.068944      44.068944      88.137889          16000 
    240000   3618.2756      98765.814      1441.9322      97375.08       98918.313      100004.05     -589.14815      320.38748      687.93102      7482.7136      4380.1026      11862.816      171293.82      44.079558      44.079558      88.159116          16000 
    241000   3614.4418      104264.53      1448.2078      103915.34      105256         103622.24      2373.4657      2635.0671      2208.9046      7474.7852      4346.3037      11821.089      170909.07      44.04653       44.04653       88.093061          16000 
    242000   3618.1461      101619.25      1454.4846      102022.38      101580.46      101254.91     -2608.4867      505.5206      -1211.5501      7482.4457      4348.5294      11830.975      171085.93      44.061719      44.061719      88.123438          16000 
    243000   3607.0499      103779.31      1460.76        102533.17      105080.73      103724.02     -228.2714       648.33003     -2322.8884      7459.4984      4299.693       11759.191      170855.92      44.041964      44.041964      88.083928          16000 
    244000   3570.971       99519.552      1467.0378      100407.88      99544.311      98606.46       622.50474     -1101.574      -2383.6328      7384.8861      4471.219       11856.105      171284.13      44.078727      44.078727      88.157453          16000 
    245000   3653.6766      99374.142      1473.3126      99308.052      99312.059      99502.315     -1000.098      -128.76995      2569.6672      7555.924       4310.4022      11866.326      171123.08      44.064908      44.064908      88.129816          16000 
    246000   3621.892       102759.66      1479.5884      103383.34      102432.89      102462.74     -330.90706      2051.2048      460.72022      7490.1924      4310.8001      11800.992      170818.53      44.038751      44.038751      88.077502          16000 
    247000   3619.9223      104026.77      1485.8639      104799.93      104548.41      102731.97      869.06141      465.96726     -2566.6031      7486.119       4433.8849      11920.004      170937.37      44.048962      44.048962      88.097924          16000 
    248000   3570.1974      103583.83      1492.1409      104705.94      102999.19      103046.36     -2536.6598      1483.7052     -168.13224      7383.2862      4410.6729      11793.959      170961.4       44.051026      44.051026      88.102052          16000 
    249000   3620.9215      98590.784      1498.4169      97099.438      99122.235      99550.679      1867.4958      796.87523     -566.07746      7488.1854      4357.4562      11845.642      171355.72      44.084867      44.084867      88.169734          16000 
    250000   3578.5787      95524.296      1504.6912      95115.8        96154.484      95302.602      412.3625      -665.57079     -160.16965      7400.6191      4316.6637      11717.283      171408.62      44.089403      44.089403      88.178807          16000 
    251000   3580.3797      92178.074      1510.9656      93616.711      91494.251      91423.261      406.13526     -169.92046     -2148.3611      7404.3436      4337.75        11742.094      171761         44.119595      44.119595      88.239191          16000 
    252000   3570.623       96416.283      1517.2412      95357.973      97506.869      96384.006     -146.25817      208.83965     -434.54524      7384.1665      4242.9044      11627.071      171379.45      44.086902      44.086902      88.173804          16000 
    253000   3591.6046      101531.66      1523.518       102458.2       102563.04      99573.723     -1901.8476      1163.2042     -1097.0634      7427.557       4307.3919      11734.949      171020.49      44.0561        44.0561        88.1122            16000 
    254000   3614.4568      99804.988      1529.7914      98783.776      100010.97      100620.22      2571.6167      699.52653     -3178.711       7474.8161      4381.5523      11856.368      171289.37      44.079177      44.079177      88.158353          16000 
    255000   3615.4274      102703.63      1536.0671      102529.66      103405.07      102176.15     -823.65812      571.32187      9.9218414      7476.8234      4274.106       11750.929      170913.43      44.046905      44.046905      88.093809          16000 
    256000   3640.6246      101716.75      1542.3436      101693.29      102839.59      100617.36      503.00822      402.51857     -3325.7246      7528.9321      4381.7398      11910.672      171119.44      44.064595      44.064595      88.129191          16000 
    257000   3627.2024      102414.49      1548.6181      102210.23      102549.35      102483.88      1163.7941     -419.46649      611.75011      7501.1746      4291.893       11793.068      170993.15      44.053753      44.053753      88.107505          16000 
    258000   3554.0945      99547.549      1554.8959      98951.974      98897.3        100793.37      1683.1101     -315.18665     -783.3905       7349.9848      4395.0589      11745.044      171260.94      44.076738      44.076738      88.153475          16000 
    259000   3605.7104      96262.036      1561.1722      94957.145      95293.047      98535.916      59.151718     -1577.3413     -842.9568       7456.7283      4286.1856      11742.914      171477.13      44.095276      44.095276      88.190553          16000 
    260000   3591.9007      95790.606      1567.4496      96302.55       95524.271      95544.998      828.30102      2140.7987     -281.88351      7428.1694      4352.6944      11780.864      171499.42      44.097187      44.097187      88.194374          16000 
    261000   3578.1776      97353.793      1573.7271      99109.031      96310.567      96641.781      917.30684      1828.5643     -683.95151      7399.7895      4307.1575      11706.947      171383.88      44.087282      44.087282      88.174565          16000 
    262000   3579.1532      97168.122      1580.0048      96852.223      95754.879      98897.263     -1059.3825     -64.06638      -1963.3599      7401.8071      4326.0472      11727.854      171434.77      44.091646      44.091646      88.183291          16000 
    263000   3582.4825      97656.402      1586.2807      98350.284      98217.512      96401.409      1115.6682      1134.9481     -696.93908      7408.6922      4331.2705      11739.963      171300.15      44.080101      44.080101      88.160202          16000 
    264000   3586.5719      100436.63      1592.558       99307.47       100977.48      101024.95     -855.80584     -693.3939      -100.10877      7417.1492      4333.0644      11750.214      171103.95      44.063266      44.063266      88.126531          16000 
    265000   3622.4568      99775.417      1598.8323      98798.771      100097.74      100429.74     -1297.0501      539.00107      870.50066      7491.3605      4309.6529      11801.013      171148.67      44.067104      44.067104      88.134209          16000 
    266000   3637.9217      98950.127      1605.1077      99422.316      98783.008      98645.058      100.83849      1950.7574     -2013.9606      7523.3423      4355.8445      11879.187      171340.25      44.08354       44.08354       88.16708           16000 
    267000   3634.5145      101402.76      1611.3814      99482.335      103215.32      101510.63      1226.3428      1228.5225      526.76386      7516.2961      4327.3755      11843.672      171050.26      44.058656      44.058656      88.117312          16000 
    268000   3573.1843      105406.91      1617.6564      106151.37      104175.17      105894.18     -2112.3582      887.45077      2451.8195      7389.4634      4281.5404      11671.004      170552.32      44.015862      44.015862      88.031724          16000 
    269000   3606.9348      99923.157      1623.9331      99197.459      100113.98      100458.03      1754.8948     -2410.6609      346.23257      7459.2603      4349.017       11808.277      171253.04      44.07606       44.07606       88.15212           16000 
    270000   3584.9632      99611.649      1630.2081      99009.561      100249.54      99575.848      594.09783     -456.9002      -1417.8067      7413.8223      4296.7159      11710.538      171178.27      44.069644      44.069644      88.139289          16000 
    271000   3563.3783      96946.594      1636.4867      98690.437      96321.196      95828.149     -1828.7378     -780.74208     -1233.9217      7369.1842      4242.5677      11611.752      171313.12      44.081214      44.081214      88.162428          16000 
    272000   3603.7324      93714.284      1642.7602      93751.946      95201.831      92189.075     -666.01559     -1385.0433     -756.24367      7452.6378      4295.1266      11747.764      171690.4       44.113549      44.113549      88.227099          16000 
    273000   3562.544       100683.25      1649.0349      102241.13      99780.025      100028.6      -1227.2749      411.39165     -76.24353       7367.4587      4308.9115      11676.37       171031.79      44.057071      44.057071      88.114141          16000 
    274000   3624.5769      100598.99      1655.307       98916.196      101153.19      101727.59      123.52619      2040.6169     -774.34855      7495.7448      4360.9543      11856.699      171100.11      44.062936      44.062936      88.125873          16000 
    275000   3557.3571      102788.5       1661.5829      102974.02      102543.68      102847.8       1382.1521      2671.8349      666.00463      7356.7321      4362.5651      11719.297      170914.19      44.04697       44.04697       88.093941          16000 
    276000   3573.957       99707.266      1667.859       99008.96       99546.92       100565.92      316.82568     -2452.6989      1568.4835      7391.0613      4391.5499      11782.611      171249.08      44.07572       44.07572       88.15144           16000 
    277000   3603.5773      98546.469      1674.1353      98336.351      98923.225      98379.831      2067.7605     -84.980762      483.80108      7452.3171      4382.4751      11834.792      171302.91      44.080338      44.080338      88.160676          16000 
    278000   3614.1924      98797.775      1680.4121      98968.498      98089.886      99334.94      -2408.5031      1695.9177      2111.8971      7474.2694      4247.8171      11722.086      171234.33      44.074455      44.074455      88.148909          16000 
    279000   3580.7079      100655.12      1686.6897      100028.49      101660.82      100276.04      1113.3698     -1089.3874      2303.8596      7405.0223      4443.3824      11848.405      171117.02      44.064388      44.064388      88.128775          16000 
    280000   3619.3861      105125.06      1692.9641      104192.26      105711.84      105471.09      1408.418       488.53199     -415.17586      7485.0101      4325.0085      11810.019      170761.8       44.033875      44.033875      88.06775           16000 
    281000   3610.4675      103294.46      1699.2405      103392.46      102344.35      104146.57     -140.17765      2160.1786      428.10472      7466.5662      4310.693       11777.259      170930.44      44.048366      44.048366      88.096732          16000 
    282000   3605.6243      97585.191      1705.5147      97953.698      97306.206      97495.669     -525.31173     -1154.5854     -1330.2432      7456.5504      4357.524       11814.074      171269.47      44.077469      44.077469      88.154938          16000 
    283000   3598.6293      98771.792      1711.7902      98033.827      97498.915      100782.63     -185.97958      49.411676      1981.1086      7442.0844      4228.1274      11670.212      171108.59      44.063664      44.063664      88.127327          16000 
    284000   3594.3888      97121.117      1718.0657      96646.096      98285.198      96432.058      1415.567       1243.1915      198.50663      7433.3149      4297.1114      11730.426      171292.72      44.079464      44.079464      88.158928          16000 
    285000   3584.5758      97417.89       1724.3403      96939.401      97884.787      97429.481     -225.75425     -1892.5918      586.82565      7413.0213      4376.3146      11789.336      171389.07      44.087727      44.087727      88.175454          16000 
[...]
   3930000   3254.215       99251.173      6215.5017      95074.748      94192.078      108486.69     -3193.2241      1194.8983      1371.2648      6729.8242      11362.715      18092.539      188104.67      45.13968       45.13968       92.317203          16000 
   3931000   3267.5699      103867.61      6222.1889      96238.681      100010.67      115353.47     -3526.4291      1330.3333     -11.885104      6757.4427      11365.156      18122.599      187624.9       45.10127       45.10127       92.238648          16000 
   3932000   3249.1703      98118.764      6228.878       94778.901      91534          108043.39     -2856.103       690.37969     -36.327665      6719.3916      11358.206      18077.598      188330.42      45.15773       45.15773       92.354119          16000 
   3933000   3239.6717      99575.354      6235.5633      95272.681      96846.222      106607.16     -3389.3665      1872.7332     -1488.0384      6699.7483      11401.267      18101.015      187939.5       45.126464      45.126464      92.290174          16000 
   3934000   3278.0581      97222.13       6242.2559      94064.277      90687.748      106914.37     -1738.3956      1439.187       208.15063      6779.1326      11322.128      18101.261      187934.94      45.126099      45.126099      92.289427          16000 
   3935000   3243.1844      98636.477      6248.9502      91413.012      95885.245      108611.17     -1044.1727     -2320.3215     -2958.6102      6707.0125      11383.265      18090.277      188110.87      45.140176      45.140176      92.318217          16000 
   3936000   3252.6157      97729.346      6255.6451      90989.677      91598.115      110600.25     -2585.9362      463.07054     -289.76551      6726.5168      11343.21       18069.726      188433.82      45.165993      45.165993      92.371017          16000 
   3937000   3268.0908      98421.064      6262.3367      92456.736      94346.075      108460.38     -425.5013       1980.0736      1852.4102      6758.5198      11318.57       18077.09       188311.34      45.156205      45.156205      92.350999          16000 
   3938000   3268.1944      100407.63      6269.0308      95058.739      95697.306      110466.84     -538.45152      3576.775      -111.55406      6758.734       11324.459      18083.193      188206.03      45.147786      45.147786      92.333781          16000 
   3939000   3289.0708      102898.03      6275.7252      99133.392      95043.06       114517.64     -2373.6278      3941.4645      2124.7655      6801.9071      11287.708      18089.615      188096.96      45.139063      45.139063      92.315942          16000 
   3940000   3246.239       99734.95       6282.4224      95032.194      94035.883      110136.77      386.72281      680.96207      603.35022      6713.3295      11365.102      18078.431      188271.6       45.153028      45.153028      92.344503          16000 
   3941000   3284.7527      99082.257      6289.1201      93250.975      95060.437      108935.36     -923.84641     -2650.5955      1613.4207      6792.9773      11287.865      18080.842      188214.99      45.148503      45.148503      92.335247          16000 
   3942000   3225.6387      100917.79      6295.8125      96314.152      95714.751      110724.48     -1631.9414      2253.4467     -418.62011      6670.7276      11400.883      18071.611      188352.79      45.159518      45.159518      92.357775          16000 
   3943000   3262.2551      101579.03      6302.5061      95106.041      95633.486      113997.57     -2804.116      -349.58061     -1443.6755      6746.4515      11342.168      18088.62       188076.81      45.137451      45.137451      92.312644          16000 
   3944000   3255.1335      101704.38      6309.1959      94719.041      97469.857      112924.23     -2424.2129     -758.97929      2910.197       6731.7236      11353.296      18085.02       188135.09      45.142112      45.142112      92.322178          16000 
   3945000   3268.9108      101194.14      6315.8954      97976.505      94775.142      110830.77      943.51176     -1028.6598      1167.9775      6760.2156      11316.452      18076.667      188267.26      45.152681      45.152681      92.343792          16000 
   3946000   3248.4959      103177.49      6322.5832      102343.36      93436.36       113752.76      503.95519      2358.7304      2503.9181      6717.9968      11379.878      18097.875      187916.05      45.124587      45.124587      92.286335          16000 
   3947000   3233.9058      95047.832      6329.2664      91696.677      87808.48       105638.34     -2275.8255      2885.7687     -328.28014      6687.8242      11354.356      18042.18       188808.68      45.195923      45.195923      92.432229          16000 
   3948000   3289.4646      97943.482      6335.9547      92938.728      90933.501      109958.22     -1315.7407      2260.6416      275.63609      6802.7216      11274.74       18077.461      188234.89      45.150093      45.150093      92.3385            16000 
   3949000   3272.9272      98996.271      6342.6518      94093.489      93796.281      109099.04     -369.5705      -2144.2931      37.654188      6768.5216      11305.982      18074.504      188282.92      45.153933      45.153933      92.346353          16000 
   3950000   3241.6792      98370.481      6349.3431      94630.004      90636.86       109844.58     -1717.967      -1420.6021     -318.98304      6703.8998      11368.439      18072.338      188308.09      45.155946      45.155946      92.350469          16000 
   3951000   3241.1341      100060.09      6356.0347      95662.794      93055.047      111462.43     -243.88614     -1490.8572      1925.525       6702.7725      11383.119      18085.892      188080.96      45.137783      45.137783      92.313324          16000 
   3952000   3260.0795      97740.644      6362.7299      91489.518      91495.305      110237.11      188.0663       1597.9857     -159.70484      6741.9521      11319.492      18061.444      188469.19      45.168819      45.168819      92.376796          16000 
   3953000   3221.2773      100951.99      6369.4196      98184.906      93840.087      110830.99     -922.65181      1262.5719     -1936.1703      6661.7079      11403.07       18064.777      188410.38      45.16412       45.16412       92.367187          16000 
   3954000   3240.0895      98975.951      6376.1085      94137.29       95119.346      107671.22     -17.947951     -1481.3308     -3328.0617      6700.6123      11367.804      18068.416      188346.94      45.159051      45.159051      92.356819          16000 
   3955000   3268.7767      100959.56      6382.8027      96878.941      95430.456      110569.29     -3730.5782      502.56974     -1803.9499      6759.9382      11310.774      18070.712      188302.71      45.155516      45.155516      92.349589          16000 
   3956000   3234.4874      97226.813      6389.4934      94057.351      91166.494      106456.6      -433.38996      308.64402      552.70287      6689.0268      11371.726      18060.753      188462.16      45.168257      45.168257      92.375648          16000 
   3957000   3275.9085      102133.71      6396.1764      99130.428      94778.067      112492.64     -3423.5588      46.243544     -1914.8113      6774.6871      11314.891      18089.578      188003.09      45.131553      45.131553      92.300581          16000 
   3958000   3230.166       100439.63      6402.8585      97863.312      92203.917      111251.65     -1392.6192      446.29593     -0.77174366     6680.0901      11369.353      18049.443      188644.86      45.182848      45.182848      92.405488          16000 
   3959000   3234.7362      99650.15       6409.5412      93618.157      93488.088      111844.2      -2127.5306     -1711.0898      1215.9091      6689.5414      11359.355      18048.897      188649.58      45.183225      45.183225      92.406259          16000 
   3960000   3233.7716      101227.79      6416.2256      92931.7        96730.148      114021.52     -2916.7414      3185.3071     -1337.2107      6687.5467      11362.472      18050.019      188628.87      45.181572      45.181572      92.402878          16000 
   3961000   3249.9707      99043.201      6422.9088      93870.448      94643.124      108616.03     -1261.306       580.4477       1298.5147      6721.0469      11339.936      18060.983      188458.53      45.167967      45.167967      92.375054          16000 
   3962000   3246.7163      99995.007      6429.5918      97112.22       92642.834      110229.97     -2242.1681      2540.1698      334.57252      6714.3167      11371.415      18085.731      188051.19      45.135401      45.135401      92.308452          16000 
   3963000   3253.738       101522.76      6436.2727      96293.277      96266.446      112008.55     -2974.9999      2458.7245     -1916.3323      6728.8377      11345.953      18074.79       188225.48      45.149341      45.149341      92.336961          16000 
   3964000   3237.8057      97574.713      6442.9568      92820.218      93277.357      106626.56     -4291.8805     -388.3181       2257.6207      6695.8893      11348.504      18044.393      188717.52      45.188648      45.188648      92.417351          16000 
   3965000   3256.1116      97780.603      6449.6466      91362.473      93348.364      108630.97     -3122.2553     -558.85254     -1104.7912      6733.7464      11323.664      18057.41       188506.25      45.171779      45.171779      92.38285           16000 
   3966000   3238.3249      99837.559      6456.3378      92584.539      96983.939      109944.2      -505.45633     -117.48855      1476.0838      6696.963       11367.238      18064.201      188388.41      45.162364      45.162364      92.363596          16000 
   3967000   3254.3826      98829.95       6463.0284      94193.502      92146.419      110149.93     -2114.062      -1467.1955     -1236.6325      6730.1707      11309.888      18040.059      188765.92      45.192512      45.192512      92.425251          16000 
   3968000   3257.1693      101464.03      6469.721       98792.751      93913.409      111685.94     -1045.4615     -8.9974889     -1306.2657      6735.9337      11331.262      18067.196      188335.61      45.158145      45.158145      92.354968          16000 
   3969000   3261.1033      98238.446      6476.406       93505.486      92181.782      109028.07     -260.64666      2285.4577      2049.0932      6744.0695      11325.308      18069.377      188285.79      45.154163      45.154163      92.346822          16000 
   3970000   3247.0564      100320.99      6483.0979      92153.983      97535.51       111273.48     -2539.3665      361.92318      3443.7967      6715.02        11359.021      18074.041      188207.18      45.147878      45.147878      92.333969          16000 
   3971000   3242.8082      105446.95      6489.7894      102692.97      99106.058      114541.83     -2246.9443      350.54946     -2436.8384      6706.2346      11385.972      18092.206      187893.84      45.122809      45.122809      92.2827            16000 
   3972000   3254.4274      98807.485      6496.4815      94680.72       93485.516      108256.22     -431.65985      865.51091     -92.12632       6730.2635      11328.95       18059.214      188444.97      45.166884      45.166884      92.372839          16000 
   3973000   3264.0544      102892.48      6503.1693      100016.18      97585.778      111075.47     -2270.9491     -2663.9041     -1091.924       6750.1725      11320.935      18071.107      188251.63      45.151432      45.151432      92.341237          16000 
   3974000   3215.4704      99966.147      6509.8545      94734.977      96831.397      108332.07     -1157.1639      3198.7013     -1249.1994      6649.699       11408.434      18058.133      188450.16      45.167299      45.167299      92.373688          16000 
   3975000   3209.0467      102885.45      6516.5419      95883.808      97128.098      115644.46     -4881.7426     -2030.7513     -2941.8965      6636.4147      11426.348      18062.763      188386.8       45.162236      45.162236      92.363334          16000 
   3976000   3239.9592      96808.958      6523.2297      89257.664      93332.01       107837.2      -3004.6625     -2681.2503      1002.9861      6700.3428      11328.587      18028.93       188909.5       45.203967      45.203967      92.448679          16000 
   3977000   3276.3328      98714.642      6529.9116      91791.893      94607.995      109744.04     -2057.3171     -1442.8163     -1164.9131      6775.5645      11287.814      18063.378      188347.34      45.159083      45.159083      92.356885          16000 
   3978000   3245.1686      100860.78      6536.5949      94723.293      95753.007      112106.05     -91.910782     -1442.9819      1297.59        6711.1159      11333.695      18044.811      188645.23      45.182878      45.182878      92.405549          16000 
   3979000   3269.2873      103497.79      6543.2824      97793.739      99673.592      113026.03     -78.905599     -54.429399     -3204.1044      6760.9943      11326.565      18087.559      187959.89      45.128096      45.128096      92.293511          16000 
   3980000   3259.2861      101041.84      6549.9646      95876.647      96703.883      110544.99     -1578.9841      393.9848      -771.3774       6740.3115      11323.632      18063.944      188325.3       45.157321      45.157321      92.353282          16000 
   3981000   3254.3464      97625.287      6556.6504      93098.933      91501.415      108275.51     -691.71679     -1578.9905      620.242        6730.096       11306.325      18036.421      188753.31      45.191505      45.191505      92.423192          16000 
   3982000   3227.8082      100898.22      6563.3402      96722.782      97051.546      108920.34     -609.71029      481.5795       630.01051      6675.2141      11394.031      18069.245      188230.06      45.149708      45.149708      92.337711          16000 
   3983000   3230.9808      99477.865      6570.0245      93955.353      94533.138      109945.1      -3966.278      -673.18524      779.50422      6681.7752      11369.824      18051.599      188506.13      45.171769      45.171769      92.382831          16000 
   3984000   3237.0285      102388.7       6576.7058      95992.704      98605.251      112568.15     -2051.9488     -2362.9494      343.01596      6694.2819      11358.573      18052.854      188482.49      45.169881      45.169881      92.37897           16000 
   3985000   3233.9385      100867.34      6583.3887      98890.26       92635.773      111075.98     -2995.6929     -381.5036       959.97076      6687.8918      11364.88       18052.772      188478.72      45.16958       45.16958       92.378353          16000 
   3986000   3237.6394      96644.266      6590.0718      92740.046      90968.461      106224.29     -439.15599      507.04827     -874.51154      6695.5454      11337.171      18032.716      188796.14      45.194923      45.194923      92.430183          16000 
   3987000   3248.8864      100532.73      6596.7593      95009.54       95180.641      111407.99     -3282.7042     -952.16511     -1049.7569      6718.8045      11343.885      18062.69       188315.28      45.15652       45.15652       92.351644          16000 
   3988000   3230.1375      98206.672      6603.4442      92447.858      92894.754      109277.4      -781.25784     -434.13897     -1361.7157      6680.0311      11379.903      18059.934      188358.7       45.159991      45.159991      92.358741          16000 
   3989000   3224.3215      98216.251      6610.13        93643.822      93921.516      107083.42     -3358.5706      379.11715      960.85419      6668.0035      11386.975      18054.979      188431.8       45.165832      45.165832      92.370688          16000 
   3990000   3191.7556      101033.56      6616.8127      94827.918      97683.623      110589.15      1809.3099     -746.99287      1089.4968      6600.6562      11456.125      18056.782      188398.03      45.163133      45.163133      92.365168          16000 
   3991000   3223.7182      94062.639      6623.4945      89052.109      90998.265      102137.54     -3050.4418     -60.083407     -777.61348      6666.7558      11361.077      18027.833      188857.65      45.19983       45.19983       92.440219          16000 
   3992000   3216.046       99142.151      6630.1858      94129.621      95157.608      108139.22     -4458.1648     -2600.2849      716.75545      6650.8894      11392.621      18043.511      188600.67      45.17932       45.17932       92.398273          16000 
   3993000   3225.9253      97938.474      6636.8707      90695.178      93618.76       109501.49      867.59253     -447.88033      1471.4219      6671.3202      11385.329      18056.649      188379.06      45.161617      45.161617      92.362068          16000 
   3994000   3242.0688      100953.4       6643.5567      94703.981      96616.99       111539.24     -2558.1802      1248.907       207.7224       6704.7055      11360.201      18064.906      188244.75      45.150882      45.150882      92.340113          16000 
   3995000   3233.9228      98915.062      6650.2405      95016.383      91948.746      109780.06     -3649.3613     -1528.7778      1987.3994      6687.8593      11356.111      18043.97       188569.21      45.176808      45.176808      92.393135          16000 
   3996000   3221.7537      101840.52      6656.9298      98205.68       95488.533      111827.34     -3672.8996     -3.5364404      599.08464      6662.6932      11374.757      18037.451      188674.72      45.185232      45.185232      92.410364          16000 
   3997000   3228.816       105694.83      6663.6144      102900.15      100052.51      114131.83     -2818.43       -18.629585     -1435.3807      6677.2982      11404.408      18081.706      187959.93      45.128099      45.128099      92.293518          16000 
   3998000   3213.9692      98506.176      6670.2964      90572.009      96016.807      108929.71     -5363.0991     -1705.1691     -2588.3368      6646.5945      11375.51       18022.104      188911.93      45.20416       45.20416       92.449075          16000 
   3999000   3202.3632      100592.53      6676.9767      92090.553      97437.69       112249.36     -1743.0912     -1398.8591     -264.33379      6622.5929      11405.394      18027.987      188813.93      45.196342      45.196342      92.433086          16000 
   4000000   3222.1683      101679.33      6683.6625      94687.58       98604.754      111745.64     -537.84484     -1377.6852     -1582.5945      6663.5506      11396.112      18059.662      188288.07      45.154345      45.154345      92.347195          16000 
Loop time of 6683.66 on 8 procs for 1000000 steps with 16000 atoms

Performance: 6.464 ns/day, 3.713 hours/ns, 149.619 timesteps/s
58.9% CPU use with 1 MPI tasks x 8 OpenMP threads

MPI task timing breakdown:
Section |  min time  |  avg time  |  max time  |%varavg| %total
---------------------------------------------------------------
Pair    | 6409.2     | 6409.2     | 6409.2     |   0.0 | 95.89
Neigh   | 11.174     | 11.174     | 11.174     |   0.0 |  0.17
Comm    | 37.87      | 37.87      | 37.87      |   0.0 |  0.57
Output  | 1.4269     | 1.4269     | 1.4269     |   0.0 |  0.02
Modify  | 199.06     | 199.06     | 199.06     |   0.0 |  2.98
Other   |            | 24.94      |            |       |  0.37

Nlocal:          16000 ave       16000 max       16000 min
Histogram: 1 0 0 0 0 0 0 0 0 0
Nghost:          13233 ave       13233 max       13233 min
Histogram: 1 0 0 0 0 0 0 0 0 0
Neighs:              0 ave           0 max           0 min
Histogram: 1 0 0 0 0 0 0 0 0 0
FullNghs:  1.29765e+06 ave 1.29765e+06 max 1.29765e+06 min
Histogram: 1 0 0 0 0 0 0 0 0 0

Total # of neighbors = 1297648
Ave neighs/atom = 81.103
Neighbor list builds = 31345
Dangerous builds = 0
Total wall time: 6:59:13
