
atom_style atomic
units metal
boundary p p p
#atom_modify sort 0 0.0
newton on

read_data data.lammps
Reading data file ...
  triclinic box = (0 0 0) to (4.3790145 4.3790145 4.3790145) with tilt (-0 0 0)
  1 by 1 by 1 MPI processor grid
  reading atoms ...
  8 atoms
  read_data CPU = 0.002 seconds
replicate 10 10 20
Replicating atoms ...
  triclinic box = (0 0 0) to (43.790145 43.790145 87.58029) with tilt (-0 0 0)
  1 by 1 by 1 MPI processor grid
  16000 atoms
  replicate CPU = 0.010 seconds

### interactions

pair_style flare
pair_coeff * * lmp.flare
Reading potential file lmp.flare with DATE: Thu

# compute unc all flare/std/atom L_inv_lmp.flare sparse_desc_lmp.flare
# compute MaxUnc all reduce max c_unc

mass 1 12.011000
mass 2 28.085000

thermo_style custom step temp press cpu pxx pyy pzz pxy pxz pyz ke pe etotal vol lx ly lz atoms    #c_MaxUnc
thermo 1000
timestep 0.0005
restart 100000 restart_*.dat

#################### Equilibrate at P and T_es ##############################
velocity all create $T 41928459 rot yes dist gaussian
velocity all create 3200 41928459 rot yes dist gaussian
fix mom all momentum 1000 linear 1 1 1 angular

fix 1 all npt temp $T $T $(100.0*dt) iso $P $P $(1000.0*dt)
fix 1 all npt temp 3200 $T $(100.0*dt) iso $P $P $(1000.0*dt)
fix 1 all npt temp 3200 3200 $(100.0*dt) iso $P $P $(1000.0*dt)
fix 1 all npt temp 3200 3200 0.050000000000000002776 iso $P $P $(1000.0*dt)
fix 1 all npt temp 3200 3200 0.050000000000000002776 iso 600000 $P $(1000.0*dt)
fix 1 all npt temp 3200 3200 0.050000000000000002776 iso 600000 600000 $(1000.0*dt)
fix 1 all npt temp 3200 3200 0.050000000000000002776 iso 600000 600000 0.5
dump 1 all custom 1000 1equil.bin id type x y z vx vy vz
run   10000 # report performance
Neighbor list info ...
  update every 1 steps, delay 10 steps, check yes
  max neighbors/atom: 2000, page size: 100000
  master list distance cutoff = 6
  ghost atom cutoff = 6
  binsize = 6, bins = 8 8 15
  1 neighbor lists, perpetual/occasional/extra = 1 0 0
  (1) pair flare/kk, perpetual
      attributes: full, newton on, kokkos_device
      pair build: full/bin/kk/device
      stencil: full/bin/3d
      bin: kk/device
Per MPI rank memory allocation (min/avg/max) = 15.9 | 15.9 | 15.9 Mbytes
   Step          Temp          Press           CPU            Pxx            Pyy            Pzz            Pxy            Pxz            Pyz           KinEng         PotEng         TotEng         Volume           Lx             Ly             Lz          Atoms   
         0   3200           60798.443      0              60479.755      60943.724      60971.85      -444.04471      199.99711     -502.05201      6617.7058     -4109.4047      2508.3011      167941.93      43.790145      43.790145      87.58029           16000 
      1000   3210.5031      598919.15      6.5753615      597783.94      598276.81      600696.7       2494.6594      1527.3719     -2833.9341      6639.4265      6955.145       13594.571      142056.9       41.413707      41.413707      82.827415          16000 
      2000   3176.7082      598202.73      13.155397      597879.83      597541.19      599187.18     -3835.4227      1950.1703     -1575.5691      6569.5376      6605.6574      13175.195      141861.68      41.394728      41.394728      82.789457          16000 
      3000   3193.0664      599756.28      19.735208      599332.65      599010.39      600925.79      2402.2457     -527.99283      3381.664       6603.3669      6821.8442      13425.211      141870.99      41.395633      41.395633      82.791267          16000 
      4000   3170.363       597666.98      26.323223      598589.9       598623.23      595787.8      -354.06331     -4117.4582      683.68649      6556.4155      6699.6855      13256.101      141843.16      41.392927      41.392927      82.785854          16000 
      5000   3202.7746      599379         32.901375      601094.44      599478.46      597564.11      3152.9714     -1339.0728      20.789963      6623.4437      6752.8048      13376.249      141854.71      41.39405       41.39405       82.7881            16000 
      6000   3186.5283      599786.24      39.479395      601950.15      599969.65      597438.94      1250.2754      3037.4296     -915.31371      6589.8458      6742.3167      13332.163      141839.14      41.392536      41.392536      82.785071          16000 
      7000   3179.5368      601183.35      46.057372      602580.38      600227.79      600741.87      614.9388      -2719.3946      5536.2509      6575.3872      6772.5066      13347.894      141797.72      41.388506      41.388506      82.777011          16000 
      8000   3214.4553      599812.13      52.636355      599592.01      598830.5       601013.89      692.94421      3227.0907     -629.20829      6647.5998      6711.5658      13359.166      141838.66      41.392489      41.392489      82.784978          16000 
      9000   3230.4676      598789.09      59.214333      599154.13      598349.26      598863.89     -1456.2766     -2073.1855     -645.49878      6680.7139      6655.2631      13335.977      141843.19      41.39293       41.39293       82.78586           16000 
     10000   3181.6005      601377.89      65.796291      602345.73      600534.23      601253.7       623.15164     -505.92965     -1348.2828      6579.6549      6790.5447      13370.2        141737.61      41.382657      41.382657      82.765314          16000 
Loop time of 65.7963 on 8 procs for 10000 steps with 16000 atoms

Performance: 6.566 ns/day, 3.655 hours/ns, 151.984 timesteps/s
61.5% CPU use with 1 MPI tasks x 8 OpenMP threads

MPI task timing breakdown:
Section |  min time  |  avg time  |  max time  |%varavg| %total
---------------------------------------------------------------
Pair    | 62.788     | 62.788     | 62.788     |   0.0 | 95.43
Neigh   | 0.085071   | 0.085071   | 0.085071   |   0.0 |  0.13
Comm    | 0.32609    | 0.32609    | 0.32609    |   0.0 |  0.50
Output  | 0.019139   | 0.019139   | 0.019139   |   0.0 |  0.03
Modify  | 2.3066     | 2.3066     | 2.3066     |   0.0 |  3.51
Other   |            | 0.271      |            |       |  0.41

Nlocal:          16000 ave       16000 max       16000 min
Histogram: 1 0 0 0 0 0 0 0 0 0
Nghost:          13870 ave       13870 max       13870 min
Histogram: 1 0 0 0 0 0 0 0 0 0
Neighs:              0 ave           0 max           0 min
Histogram: 1 0 0 0 0 0 0 0 0 0
FullNghs:  1.62623e+06 ave 1.62623e+06 max 1.62623e+06 min
Histogram: 1 0 0 0 0 0 0 0 0 0

Total # of neighbors = 1626228
Ave neighs/atom = 101.63925
Neighbor list builds = 215
Dangerous builds = 0
run  990000
Per MPI rank memory allocation (min/avg/max) = 16.2 | 16.2 | 16.2 Mbytes
   Step          Temp          Press           CPU            Pxx            Pyy            Pzz            Pxy            Pxz            Pyz           KinEng         PotEng         TotEng         Volume           Lx             Ly             Lz          Atoms   
     10000   3181.6005      601377.89      0              602345.73      600534.23      601253.7       623.15164     -505.92965     -1348.2828      6579.6549      6790.5447      13370.2        141737.61      41.382657      41.382657      82.765314          16000 
     11000   3182.0894      595269.45      6.5769153      595251.29      593612.75      596944.32     -705.9851      -531.17293      1659.4203      6580.6662      6733.7796      13314.446      141910.54      41.39948       41.39948       82.798959          16000 
     12000   3201.0579      602020.85      13.157021      601808.69      601270.56      602983.28     -278.39784      30.936568     -1507.422       6619.8935      6755.3914      13375.285      141695.58      41.378566      41.378566      82.757133          16000 
     13000   3218.0314      597473.9       19.73489       596220.47      597894.27      598306.95      1634.1592      355.14086      1756.5886      6654.9952      6727.2326      13382.228      141888.82      41.397368      41.397368      82.794735          16000 
     14000   3207.0504      601301.56      26.312306      600810.65      600961.48      602132.55     -2162.5766      183.61996      226.72149      6632.2863      6713.6552      13345.941      141729.05      41.381823      41.381823      82.763647          16000 
     15000   3206.18        599407.78      32.889507      600026.03      597528.44      600668.86      167.14475      102.15774      1425.2865      6630.4862      6712.9323      13343.418      141819.13      41.390589      41.390589      82.781178          16000 
     16000   3198.5017      600318.73      39.46687       599301.04      599156.1       602499.05     -1380.5957      126.33195     -2038.3543      6614.6072      6697.5606      13312.168      141780.94      41.386873      41.386873      82.773747          16000 
     17000   3203.8745      601220.29      46.044381      601557.71      600936.04      601167.11      833.12391      1297.2623     -2713.508       6625.7183      6783.3755      13409.094      141775.95      41.386388      41.386388      82.772776          16000 
     18000   3195.972       593900.51      52.622814      594734.87      592910.2       594056.46     -486.88844     -567.48073     -609.20095      6609.3758      6637.5503      13246.926      141976.85      41.405927      41.405927      82.811854          16000 
     19000   3226.1846      612553.71      59.199364      611548.5       614185.15      611927.48     -3391.9064      1746.0401      19.658026      6671.8563      6907.5169      13579.373      141399.61      41.349736      41.349736      82.699472          16000 
     20000   3214.5005      595882.49      65.777089      595505.07      597356.04      594786.37      5215.989      -1868.0674      913.85423      6647.6934      6697.4572      13345.151      141956.54      41.403952      41.403952      82.807904          16000 
     21000   3181.6695      599347.6       72.352017      600616.35      599007.25      598419.21     -3977.928       533.80196      6000.9135      6579.7976      6704.7488      13284.546      141778.01      41.386588      41.386588      82.773176          16000 
     22000   3183.9071      600452.76      78.928008      602607.99      598585.92      600164.38     -1901.1085      2690.5576     -304.13671      6584.4251      6807.8073      13392.232      141800.41      41.388768      41.388768      82.777536          16000 
     23000   3162.4982      599219.13      85.503762      600212.53      599851.28      597593.59     -4905.8973      1162.091      -933.54995      6540.1508      6655.9107      13196.062      141797.85      41.388518      41.388518      82.777037          16000 
     24000   3193.2793      602799.68      92.08029       604867.61      602694.55      600836.88      1985.2512      2154.5055      1864.5033      6603.8073      6819.1333      13422.941      141724.84      41.381414      41.381414      82.762828          16000 
     25000   3207.9179      594284.93      98.65613       595209.73      593118.85      594526.23      45.153959     -2266.954       1555.7967      6634.0804      6657.5977      13291.678      142011.44      41.40929       41.40929       82.818579          16000 
     26000   3200.8874      608789.81      105.2333       605998.22      610384.18      609987.04      2296.7494     -2318.1198     -1227.7607      6619.5409      6889.3278      13508.869      141537.83      41.363205      41.363205      82.726409          16000 
     27000   3193.5483      593945.73      111.81174      594362.66      592597.37      594877.17     -1271.0019     -611.93409     -122.50384      6604.3634      6632.2408      13236.604      141966.84      41.404954      41.404954      82.809908          16000 
     28000   3198.3231      603165.54      118.38642      605087.13      602112.28      602297.19     -3519.6226      963.47041      676.84196      6614.2378      6825.1322      13439.37       141701.33      41.379126      41.379126      82.758251          16000 
     29000   3210.3882      597315.83      124.96336      597212.26      597360.76      597374.47      5153.6522      41.449987      785.09233      6639.189       6709.5993      13348.788      141875.27      41.39605       41.39605       82.7921            16000 
     30000   3195.3887      599164.71      131.54079      599664.23      599601.37      598228.53     -1373.4078      308.53905     -1923.3429      6608.1695      6763.4727      13371.642      141797.01      41.388437      41.388437      82.776875          16000 
     31000   3197.5959      599474.22      138.11743      597917.74      600011.06      600493.87     -2700.4072      1880.3782      171.99263      6612.7341      6775.2477      13387.982      141834.82      41.392115      41.392115      82.78423           16000 
     32000   3172.8654      598053.84      144.69283      597626.66      599046.15      597488.72     -777.07325      3058.1486      1149.6429      6561.5904      6699.8702      13261.461      141870.74      41.39561       41.39561       82.791219          16000 
     33000   3190.8875      603548.73      151.27008      602720.08      605023.53      602902.59      2798.0798     -40.02086      -2271.2143      6598.8608      6892.4369      13491.298      141614.35      41.370657      41.370657      82.741315          16000 
     34000   3171.2103      594140.48      157.8455       594001.96      594150.09      594269.39     -42.784535     -2263.0923      899.33637      6558.1678      6722.6444      13280.812      141969.03      41.405167      41.405167      82.810334          16000 
     35000   3191.0981      605174.89      164.42448      605715.06      604454.94      605354.68     -271.52344     -2528.208      -2443.5112      6599.2964      6821.0114      13420.308      141582.83      41.367588      41.367588      82.735175          16000 
     36000   3181.7548      596818.77      170.99988      598834.56      596700.01      594921.75      974.45986     -1236.3723     -1548.3916      6579.9742      6661.5352      13241.509      141879.04      41.396416      41.396416      82.792833          16000 
     37000   3207.254       602017.45      177.57597      600902.77      602477.16      602672.43     -3779.8453      914.50126     -845.86257      6632.7072      6746.1909      13378.898      141675.8       41.37664       41.37664       82.75328           16000 
     38000   3227.7515      598280.89      184.15187      598030.91      598157.73      598654.02     -3482.9442     -2254.0384      2558.3763      6675.0969      6796.696       13471.793      141917.84      41.40019       41.40019       82.80038           16000 
     39000   3234.3498      603287.86      190.72752      600529.06      604834.79      604499.74     -621.39496     -1809.1347     -2333.952       6688.7424      6737.6361      13426.378      141633.67      41.372538      41.372538      82.745076          16000 
     40000   3193.495       594424.9       197.30334      595546.54      593103.34      594624.81     -1088.9986      1299.0395      2070.6824      6604.2533      6582.2016      13186.455      141955.39      41.403841      41.403841      82.807682          16000 
     41000   3169.3252      603713.36      203.88027      603204.6       603277.7       604657.79     -2398.3501      3051.1006     -2102.488       6554.2693      6824.3351      13378.604      141637.07      41.37287       41.37287       82.74574           16000 
     42000   3191.7031      599211.62      210.4569       598474.17      599412.3       599748.4      -382.60627      831.87195      1041.4049      6600.5475      6746.4468      13346.994      141779.87      41.386769      41.386769      82.773538          16000 
     43000   3211.8663      599641.46      217.03275      599735.56      600469.7       598719.11      3597.8464     -2298.5624     -568.83204      6642.2458      6758.4544      13400.7        141781.34      41.386912      41.386912      82.773825          16000 
     44000   3173.011       600119.1       223.60913      601324.7       598857.21      600175.41     -703.14987     -1183.6038     -998.54185      6561.8916      6731.4604      13293.352      141769.85      41.385794      41.385794      82.771589          16000 
     45000   3200.7593      599965.4       230.1857       601107.74      597702.66      601085.81      1345.5735      1034.0264     -3176.3689      6619.276       6778.5071      13397.783      141789.39      41.387696      41.387696      82.775392          16000 
     46000   3190.3274      602265         236.7606       601761.48      603446.96      601586.56     -2396.2228      1074.2686      1844.6497      6597.7025      6738.8113      13336.514      141688.77      41.377903      41.377903      82.755806          16000 
     47000   3197.6914      600088.86      243.33585      600118.3       598159.1       601989.17     -881.63792      1988.5998     -185.44622      6612.9316      6751.1873      13364.119      141784.37      41.387207      41.387207      82.774414          16000 
     48000   3186.3691      597078.43      249.91097      597401.35      595791.78      598042.16     -3806.4842      847.07747     -556.78669      6589.5166      6728.5309      13318.048      141881.42      41.396648      41.396648      82.793296          16000 
     49000   3233.3957      601677.6       256.48687      600877.95      602150.59      602004.26     -247.18779      2988.602       1211.0573      6686.7692      6722.0904      13408.86       141767.61      41.385577      41.385577      82.771153          16000 
     50000   3152.4017      598574.91      263.06022      601528.19      597360.35      596836.2      -5007.3591     -1876.7968      84.807399      6519.2709      6745.6849      13264.956      141772.47      41.386049      41.386049      82.772098          16000 
     51000   3204.7241      598030.18      269.63527      597783.76      598193.79      598113        -218.87158      1700.6617      2102.2458      6627.4753      6774.3205      13401.796      141798.24      41.388557      41.388557      82.777113          16000 
     52000   3183.684       601847.47      276.20987      601045.84      602087.65      602408.9      -1584.1562      722.75113     -3383.4495      6583.9637      6831.8558      13415.819      141705.08      41.379491      41.379491      82.758982          16000 
     53000   3199.0271      596597.8       282.78456      596185.28      597357.81      596250.3      -365.30581     -970.8214      -339.92772      6615.6937      6654.6269      13270.321      141879.5       41.396462      41.396462      82.792923          16000 
     54000   3237.7692      607899.64      289.36054      608439.29      608191.53      607068.1      -3808.2471     -850.31991      1521.248       6695.8137      6784.5564      13480.37       141515.4       41.36102       41.36102       82.72204           16000 
     55000   3214.5051      593927.27      295.93618      591869.02      596822.14      593090.64     -469.31746     -4540.6608     -1507.6359      6647.7028      6728.2748      13375.978      141997.93      41.407977      41.407977      82.815953          16000 
     56000   3229.9545      602752.33      302.51106      602670.03      603203.24      602383.73     -2545.9414      961.40989      54.824155      6679.6526      6717.6255      13397.278      141640.55      41.373208      41.373208      82.746417          16000 
     57000   3240.9149      595512.24      309.08443      593998.76      596407.97      596130        -2049.3794      749.74585      2106.6147      6702.3192      6700.8484      13403.168      141936.28      41.401983      41.401983      82.803966          16000 
     58000   3221.2088      604905.09      315.65903      603467.14      603486.95      607761.18      2111.3832     -922.68215     -229.5926       6661.5663      6785.9159      13447.482      141602.83      41.369536      41.369536      82.739071          16000 
     59000   3211.182       594633.9       322.23435      596159.95      593038.78      594702.97     -2497.0288      2218.1213     -3689.1596      6640.8306      6644.8747      13285.705      141949.07      41.403226      41.403226      82.806453          16000 
     60000   3209.7341      606438.33      328.8093       607724.48      605934.75      605655.77      1746.7135      2575.8661     -1063.3068      6637.8363      6749.1844      13387.021      141556.19      41.364993      41.364993      82.729985          16000 
     61000   3223.5566      596651.81      335.38847      596074         597014.21      596867.21     -1936.314       1381.9879     -4174.5438      6666.4216      6700.8077      13367.229      141893.83      41.397855      41.397855      82.795709          16000 
     62000   3209.2903      599125.13      341.96941      598645.88      599051.13      599678.37     -2434.739      -346.81355      3609.0027      6636.9185      6760.2509      13397.169      141771.99      41.386003      41.386003      82.772005          16000 
     63000   3195.9776      600410         348.54816      601112.04      598838.74      601279.22     -114.59721     -2397.6226     -1756.8572      6609.3874      6709.6776      13319.065      141716.03      41.380556      41.380556      82.761112          16000 
     64000   3198.0034      599753.02      355.12745      598666.55      600745.42      599847.1       110.30057      503.43795     -92.659773      6613.5767      6693.9468      13307.524      141782.29      41.387005      41.387005      82.77401           16000 
     65000   3197.4939      603354.3       361.70971      603116.39      603763.71      603182.79     -1351.2558      373.49505      338.91178      6612.523       6814.6775      13427.201      141656.31      41.374743      41.374743      82.749485          16000 
     66000   3203.867       594612.45      368.28732      596770.27      593253.48      593813.59      737.08707     -3083.0339      2224.6523      6625.703       6587.7907      13213.494      141971.29      41.405386      41.405386      82.810772          16000 
     67000   3201.9204      606824.08      374.87083      607400.87      607049.35      606022.02      1521.8766      847.98811     -872.86876      6621.6773      6839.2562      13460.934      141599.08      41.369171      41.369171      82.738342          16000 
     68000   3203.2268      595723.64      381.45417      595559.45      596794.81      594816.68      1525.7901      3067.4847     -292.02276      6624.379       6677.9796      13302.359      141989.46      41.407153      41.407153      82.814307          16000 
     69000   3156.9724      602952.86      388.03625      604411.24      601070.89      603376.44      647.94226     -1152.8494      2743.1442      6528.7233      6762.5703      13291.294      141625.24      41.371718      41.371718      82.743435          16000 
     70000   3202.6618      598949.63      394.62056      598983.33      599433.25      598432.32      693.54381     -85.912059     -3125.6449      6623.2105      6732.2153      13355.426      141856.94      41.394267      41.394267      82.788534          16000 
     71000   3222.5707      601500.29      401.20698      601861.81      601903.25      600735.8      -3043.8149      59.611258      4658.7496      6664.3827      6712.6187      13377.001      141720.32      41.380974      41.380974      82.761948          16000 
     72000   3210.1982      601049.12      407.79069      600258.62      601488.59      601400.16      1862.4825      1650.7502     -4843.0647      6638.7961      6775.7518      13414.548      141762.25      41.385055      41.385055      82.77011           16000 
     73000   3198.2347      597418.29      414.3779       597890.37      597743.7       596620.79     -580.84759      468.55366      311.62377      6614.055       6676.4747      13290.53       141879.99      41.396509      41.396509      82.793018          16000 
     74000   3217.2596      605282.25      420.9633       606421.39      604549.38      604875.97     -2028.0614      1979.4952     -1574.9172      6653.3992      6853.1083      13506.508      141594.42      41.368716      41.368716      82.737432          16000 
     75000   3166.3869      596230.36      427.54789      596199.03      596535.67      595956.37      470.78853      1798.9444      3843.2139      6548.1927      6684.0783      13232.271      141880.26      41.396535      41.396535      82.79307           16000 
     76000   3202.1862      605506.46      434.13194      607472.29      605686.51      603360.59     -2624.3703     -4025.0354      380.35         6622.2269      6826.829       13449.056      141593.21      41.368598      41.368598      82.737197          16000 
     77000   3164.6182      593786.02      440.71618      594708.78      593074.13      593575.15      2866.1469      2531.2271      2550.3753      6544.535       6713.8549      13258.39       141942.37      41.402575      41.402575      82.805149          16000 
     78000   3210.0794      606150.97      447.29986      606176.09      605432.77      606844.05      429.00608      2093.3769     -141.72801      6638.5504      6793.15        13431.7        141583.32      41.367636      41.367636      82.735272          16000 
     79000   3197.7241      596081.61      453.88718      593618.85      596937.96      597688.03      189.70696     -3356.4555     -1275.2637      6612.9992      6713.1239      13326.123      141954.26      41.403731      41.403731      82.807462          16000 
     80000   3197.466       602922.64      460.47073      601944.71      604026.5       602796.7       82.241563     -564.5626      -3630.2357      6612.4654      6789.4322      13401.898      141679.2       41.376971      41.376971      82.753942          16000 
     81000   3182.0082      599828.68      467.05538      599750.25      599402.91      600332.88     -434.24953     -1799.0865     -876.38316      6580.4981      6726.7251      13307.223      141779.45      41.386728      41.386728      82.773457          16000 
     82000   3206.4452      600120.46      473.64303      600623.09      599141.09      600597.21      1440.3503     -1910.9323      2332.9126      6631.0347      6794.1277      13425.162      141809.9       41.389692      41.389692      82.779383          16000 
     83000   3195.0535      602151.39      480.23484      604176.28      602174.12      600103.77     -223.49122      548.9436       484.87508      6607.4762      6805.104       13412.58       141722.69      41.381205      41.381205      82.762409          16000 
     84000   3215.2755      592971.55      486.82656      594137.54      593654.81      591122.29     -255.28847      106.71476     -571.83176      6649.2961      6639.1356      13288.432      142021.23      41.410241      41.410241      82.820482          16000 
     85000   3228.307       605433.9       493.42363      605339.26      603606.94      607355.49      919.9987      -2588.4729     -1159.8124      6676.2456      6840.4464      13516.692      141627.58      41.371946      41.371946      82.743891          16000 
     86000   3208.4946      595065.1       500.02178      594129.85      595663.72      595401.72     -2071.4643     -787.04053      626.8309       6635.2729      6646.2565      13281.529      141958.57      41.40415       41.40415       82.8083            16000 
     87000   3223.8095      604360.89      506.62029      603437.02      605224.12      604421.52     -133.3906       288.41155      474.13691      6666.9446      6913.4316      13580.376      141688.21      41.377849      41.377849      82.755697          16000 
     88000   3186.0906      598939.45      513.21992      597361.6       598869.14      600587.61     -718.27866     -218.51827      164.72746      6588.9406      6715.4316      13304.372      141822.91      41.390957      41.390957      82.781914          16000 
     89000   3199.5273      600117.33      519.81964      601135.95      599646.25      599569.79      1436.4113     -689.70749     -159.08867      6616.7282      6704.4451      13321.173      141765.35      41.385357      41.385357      82.770713          16000 
     90000   3205.8152      600843.86      526.42108      602382.98      599606.58      600542.03      1495.0677      2125.0759      1679.1908      6629.7318      6760.6938      13390.426      141733.75      41.382281      41.382281      82.764562          16000 
     91000   3228.1146      596347.04      533.02138      594221.06      596836.15      597983.91      4833.1323     -678.35433      2515.5565      6675.8478      6677.9561      13353.804      141911.15      41.399539      41.399539      82.799078          16000 
     92000   3201.1397      603177.67      539.61546      603652.42      605065.42      600815.17      57.602429      810.89886      4563.5684      6620.0627      6725.5163      13345.579      141629.21      41.372105      41.372105      82.74421           16000 
     93000   3238.4453      597452.55      546.21537      598235.95      598641.11      595480.59      3164.5949     -1836.3259      2625.316       6697.2119      6659.8349      13357.047      141879.58      41.396469      41.396469      82.792937          16000 
     94000   3209.5142      604310.56      552.81766      603730.64      602873.18      606327.86     -1475.9883      169.27737     -1489.5702      6637.3815      6700.5914      13337.973      141636.57      41.372821      41.372821      82.745642          16000 
     95000   3231.5855      594764.21      559.42065      594442.94      593861.95      595987.73      391.70656     -3555.0109     -3339.1106      6683.0256      6679.7015      13362.727      141940.11      41.402355      41.402355      82.80471           16000 
     96000   3191.5485      604882.1       566.02249      603902.22      606700         604044.07      3203.4784      347.3091       5380.9009      6600.2277      6767.0791      13367.307      141632.73      41.372448      41.372448      82.744895          16000 
     97000   3216.1406      596264.1       572.62638      596913         594599.41      597279.9       221.72237      1522.3284      357.02177      6651.0852      6660.8177      13311.903      141917.69      41.400175      41.400175      82.80035           16000 
     98000   3244.7283      603883         579.22979      603943.16      604769.58      602936.27     -2935.0004      6110.6329     -2063.2791      6710.2053      6751.997       13462.202      141720.63      41.381005      41.381005      82.762009          16000 
     99000   3191.5831      599583.81      585.83301      600781.25      598989.5       598980.68      4313.7527     -3272.2425     -855.45306      6600.2994      6697.3097      13297.609      141855.33      41.39411       41.39411       82.78822           16000 
    100000   3197.5823      602105.75      592.44331      602288.79      601270.35      602758.09      2449.6958     -1318.8642      206.6092       6612.7059      6718.3019      13331.008      141746.83      41.383554      41.383554      82.767109          16000 
    101000   3177.4756      601709.93      599.04582      602813.02      601706.4       600610.38      4816.2894      238.40571     -2506.0518      6571.1247      6774.5916      13345.716      141721.1       41.38105       41.38105       82.7621            16000 
    102000   3208.3832      599298.83      605.64793      600029.3       599126.78      598740.41     -1119.6766      1679.6879     -1397.181       6635.0425      6792.5891      13427.632      141857.02      41.394275      41.394275      82.78855           16000 
    103000   3177.4497      602138.42      612.25261      606432.11      598652.28      601330.86     -478.01881      771.6584      -1856.6266      6571.0709      6760.2969      13331.368      141717.75      41.380724      41.380724      82.761448          16000 
    104000   3184.2043      599004.27      618.84392      599256.78      597964.99      599791.05      3104.4255     -1593.7008      225.48736      6585.0398      6765.4654      13350.505      141906.39      41.399076      41.399076      82.798153          16000 
    105000   3191.0561      604123.41      625.43318      605350.09      602946.02      604074.13      1373.4055     -312.54841     -1761.6852      6599.2095      6814.7283      13413.938      141640.09      41.373164      41.373164      82.746328          16000 
    106000   3219.9155      594965.09      632.02268      591860.64      595996.63      597038         2338.2261      2947.0538     -25.490417      6658.8918      6754.5598      13413.452      142007.4       41.408896      41.408896      82.817793          16000 
    107000   3223.5535      605931.21      638.61134      605917.82      606641.9       605233.9       1109.7161      2730.9328     -3627.2579      6666.4152      6798.3891      13464.804      141563.03      41.365659      41.365659      82.731319          16000 
    108000   3205.8732      596545.57      645.19899      596510.15      596803.32      596323.24      1017.2524     -3082.8642      6507.4662      6629.8518      6695.9322      13325.784      141889.08      41.397393      41.397393      82.794786          16000 
    109000   3237.3266      603945.04      651.78441      603845.93      603028.38      604960.82      1471.0822      2620.9418     -1253.1342      6694.8985      6769.1478      13464.046      141692.39      41.378255      41.378255      82.756511          16000 
    110000   3216.298       597304.44      658.36883      596167.37      597766.13      597979.81     -1141.2892      70.780208      2726.8308      6651.4107      6731.3103      13382.721      141914.05      41.399821      41.399821      82.799643          16000 
    111000   3161.8502      601683.87      664.95399      602145.3       603082.62      599823.69     -432.45485     -1872.1251     -951.5853       6538.8107      6815.86        13354.671      141706.38      41.379617      41.379617      82.759235          16000 
    112000   3220.7819      598584.19      671.5389       597717.27      596796.14      601239.15      1952.9933      854.68113     -722.31514      6660.6835      6757.1609      13417.844      141815.61      41.390247      41.390247      82.780494          16000 
    113000   3158.4967      599552.98      678.12021      599796.82      600120.04      598742.09     -1409.9459     -641.47824      797.18232      6531.8757      6781.3096      13313.185      141791.47      41.387898      41.387898      82.775795          16000 
    114000   3222.5318      602725.65      684.7023       601561.18      603870.11      602745.67     -2127.5754      2021.9771      2791.7595      6664.3024      6849.779       13514.081      141701.33      41.379126      41.379126      82.758251          16000 
    115000   3208.7367      594577.82      691.2826       594254.4       594450.73      595028.32      3270.8333     -948.58378      47.103875      6635.7735      6648.2158      13283.989      141993.65      41.40756       41.40756       82.815121          16000 
    116000   3195.0502      604559.23      697.86215      604383.19      603552.78      605741.71      2074.5387     -3241.0494     -1119.0307      6607.4695      6766.112       13373.581      141639.26      41.373083      41.373083      82.746166          16000 
    117000   3198.5923      597116.63      704.44296      597622.32      597821.38      595906.2       47.350083     -1680.5081      1623.9141      6614.7947      6723.7833      13338.578      141936.01      41.401956      41.401956      82.803913          16000 
    118000   3194.076       605390.81      711.0213       607495.19      603393.73      605283.51      671.80978     -1931.6861     -2010.1203      6605.4547      6776.5695      13382.024      141567.04      41.36605       41.36605       82.7321            16000 
    119000   3237.2312      596017.5       717.59939      596828.43      595346.13      595877.94      4946.3816      1911.2446     -248.00071      6694.7012      6641.8644      13336.566      141944.74      41.402806      41.402806      82.805611          16000 
    120000   3232.1201      600463.06      724.17727      599641.08      603022.41      598725.71     -5290.6431      2666.326      -1535.8944      6684.1313      6679.3323      13363.464      141727.07      41.381631      41.381631      82.763262          16000 
    121000   3179.6487      601010.24      730.75844      600394.27      600418.64      602217.81     -365.40472      4475.7908      3195.5657      6575.6186      6811.4021      13387.021      141779.09      41.386694      41.386694      82.773388          16000 
    122000   3207.1231      598246.95      737.35168      597861.97      598708.44      598170.45      1391.0564      5243.596      -1421.8296      6632.4366      6702.0692      13334.506      141836.93      41.392321      41.392321      82.784641          16000 
    123000   3189.1411      604993.22      743.94422      606188.83      604047.23      604743.61     -887.90229     -350.10968      2490.8392      6595.2493      6820.1669      13415.416      141615.6       41.370779      41.370779      82.741559          16000 
    124000   3192.6564      593489.48      750.5386       592932.61      593016.49      594519.34     -680.12978     -2509.7014      332.48408      6602.519       6652.3664      13254.885      141975.69      41.405814      41.405814      82.811628          16000 
    125000   3230.2045      606018.38      757.13771      605835.47      604448.86      607770.82      1721.9595      5236.38        7581.1549      6680.1698      6863.247       13543.417      141582.15      41.367522      41.367522      82.735043          16000 
    126000   3203.3236      594464.19      763.74175      595869.88      594164.19      593358.51      327.44832      1942.989       2720.715       6624.579       6654.2702      13278.849      141959.03      41.404195      41.404195      82.808389          16000 
    127000   3234.8922      602966.83      770.34483      603373.49      601611.59      603915.41      2801.9651      1425.951       3167.2058      6689.8641      6853.5584      13543.422      141676.54      41.376713      41.376713      82.753426          16000 
    128000   3205.8753      599341.1       776.95259      599803.67      599044.34      599175.29      406.29461      1390.9934     -609.156        6629.856       6693.1339      13322.99       141800.03      41.38873       41.38873       82.777461          16000 
    129000   3230.2088      599867.72      783.55823      598847.15      601756.02      598999.98     -1352.6553      2221.7039      214.13435      6680.1785      6802.4835      13482.662      141799.68      41.388696      41.388696      82.777393          16000 
    130000   3148.8297      601990.46      790.16484      603288.87      600190.77      602491.75      1018.332      -275.51883      1196.6909      6511.884       6849.5136      13361.398      141694.71      41.378481      41.378481      82.756962          16000 
    131000   3205.2479      600446.26      796.77041      603500.75      598860.49      598977.53     -416.30178     -3580.0756      2717.8869      6628.5586      6757.0899      13385.649      141768.56      41.385669      41.385669      82.771337          16000 
    132000   3182.1095      598600.92      803.38722      599075.73      598882.62      597844.42     -1247.8939     -973.85675      1537.1986      6580.7077      6698.3154      13279.023      141802.61      41.388981      41.388981      82.777963          16000 
    133000   3230.3998      602435.13      809.99248      603004.17      602042.96      602258.25      37.453354     -4341.8309      1263.1488      6680.5736      6755.4102      13435.984      141691.66      41.378185      41.378185      82.756369          16000 
    134000   3187.3919      597365.19      816.60068      595991.08      597797.38      598307.1       1079.8291      1841.3071     -1780.6         6591.6318      6704.2196      13295.851      141846.07      41.393209      41.393209      82.786419          16000 
    135000   3197.4388      601149.51      823.20613      602862.79      601367.64      599218.1      -1837.7687     -1544.6497     -1623.1947      6612.4091      6779.3404      13391.749      141702.49      41.379239      41.379239      82.758478          16000 
    136000   3184.4296      597363.41      829.81161      597935.74      596480.91      597673.57      6295.1311     -2338.5795     -1214.3152      6585.5056      6802.1674      13387.673      141887.83      41.397272      41.397272      82.794543          16000 
    137000   3195.5166      601718.84      836.41692      599980.69      602278.43      602897.38      2743.5479     -1547.4246     -3875.5907      6608.434       6833.2208      13441.655      141736.97      41.382595      41.382595      82.76519           16000 
    138000   3184.1437      599841.1       843.02357      598906.14      600872.26      599744.9      -3378.6151      1134.9316     -678.67437      6584.9145      6755.293       13340.207      141784.24      41.387194      41.387194      82.774389          16000 
    139000   3193.6439      601347.28      849.62963      601459.99      600339.58      602242.27     -751.35433     -1873.2111     -1657.5957      6604.5611      6807.5299      13412.091      141761.49      41.384981      41.384981      82.769961          16000 
    140000   3200.4365      595679.84      856.2391       594940.27      593910.85      598188.4       1307.9092      1134.9937     -1581.315       6618.6085      6765.754       13384.362      141921.2       41.400517      41.400517      82.801033          16000 
    141000   3196.5106      603900.33      862.84442      603294.64      604360.37      604045.99      3608.635      -975.9507      -572.69171      6610.4896      6781.1914      13391.681      141642.65      41.373414      41.373414      82.746827          16000 
    142000   3243.1174      599735.53      869.44962      598747.1       600989.13      599470.36     -1778.4426      1683.9764      1823.1572      6706.874       6736.7959      13443.67       141824.09      41.391072      41.391072      82.782143          16000 
    143000   3184.3299      598595.2       876.04656      597272.4       600223.54      598289.66      392.42129     -1352.8642     -512.73152      6585.2995      6749.6962      13334.996      141809.95      41.389696      41.389696      82.779392          16000 
    144000   3230.0551      600192.11      882.65194      601754.32      599073.37      599748.64     -5858.1399      284.80831     -4289.6486      6679.8607      6690.6333      13370.494      141798.37      41.388569      41.388569      82.777138          16000 
    145000   3187.1606      600923.71      889.2553       600795.54      601248.5       600727.08     -1142.2399     -624.64406      1351.241       6591.1536      6693.4479      13284.602      141732.13      41.382124      41.382124      82.764248          16000 
    146000   3223.3163      599719.79      895.86198      599640.43      599539.77      599979.18      5053.5724      2306.2459     -2985.6336      6665.9248      6730.3697      13396.294      141845.56      41.39316       41.39316       82.786319          16000 
    147000   3220.5944      605574.41      902.46603      604901.57      607446.53      604375.13     -2735.015       1141.1945      651.63691      6660.2957      6855.9936      13516.289      141637.28      41.37289       41.37289       82.745781          16000 
    148000   3167.4393      593727.54      909.07349      595210.16      593327.02      592645.45     -190.2211      -3196.0692     -2743.3933      6550.3691      6700.2821      13250.651      141964.73      41.404749      41.404749      82.809498          16000 
    149000   3206.9883      603964.26      915.67986      603675.91      603756.56      604460.32     -139.96562     -2831.7412      4352.2618      6632.1578      6702.194       13334.352      141591.98      41.368479      41.368479      82.736958          16000 
    150000   3210.9514      599589.96      922.28768      599762         599656.79      599351.11     -961.33576     -348.53157      648.26841      6640.3536      6739.9102      13380.264      141795.82      41.388321      41.388321      82.776642          16000 
    151000   3152.867       599108.54      928.89473      598054.65      598329.96      600941         5644.3829      873.58433     -3815.866       6520.2332      6677.2379      13197.471      141768.91      41.385702      41.385702      82.771405          16000 
    152000   3217.06        600415.84      935.50253      599004.23      601234.37      601008.91     -2223.9482     -2282.2774     -827.90996      6652.9864      6761.7323      13414.719      141785.95      41.387361      41.387361      82.774721          16000 
    153000   3187.6378      599185.98      942.11065      598970.07      598433.11      600154.77      1434.8601      3830.5532      2765.7549      6592.1404      6671.694       13263.834      141760.48      41.384882      41.384882      82.769764          16000 
    154000   3200.6803      604009.45      948.71849      604945.62      603751.34      603331.39     -1046.5346      3254.3181      1468.2609      6619.1126      6775.2983      13394.411      141657.28      41.374837      41.374837      82.749675          16000 
    155000   3209.7683      594323.06      955.32844      593426.23      594073.93      595469.03     -634.1402       3161.1821      3117.9805      6637.907       6584.751       13222.658      141930.07      41.401379      41.401379      82.802758          16000 
    156000   3165.4003      605793.36      961.93215      605792.3       606908.33      604679.43     -103.06244     -393.6703      -3580.7608      6546.1524      6900.0768      13446.229      141519.11      41.361381      41.361381      82.722761          16000 
    157000   3197.1893      595898.63      968.54031      594127.93      597244.16      596323.82     -1988.2316      1836.7822     -2715.3751      6611.8932      6729.847       13341.74       141949.8       41.403298      41.403298      82.806596          16000 
    158000   3169.9636      600862.67      975.14829      601847.51      600599.16      600141.32     -977.20681      2793.0005     -130.6796       6555.5895      6825.6697      13381.259      141728.66      41.381786      41.381786      82.763572          16000 
    159000   3173.0524      598733.35      981.75484      600826.6       596004.8       599368.66     -536.46425     -2671.957      -3199.2513      6561.9773      6670.668       13232.645      141769.66      41.385776      41.385776      82.771552          16000 
    160000   3171.2021      600838.94      988.36189      600339.66      600508.56      601668.61     -407.53487      2925.3851      5251.0912      6558.1508      6855.6761      13413.827      141767.94      41.385608      41.385608      82.771216          16000 
    161000   3225.4224      593528.44      994.9678       594664.91      593721.13      592199.26      1523.408      -3719.5249     -4461.6984      6670.2801      6641.0198      13311.3        142028.94      41.410991      41.410991      82.821982          16000 
    162000   3200.906       607172.37      1001.573       606001.33      607027         608488.77     -1176.5144     -242.60811     -3410.8733      6619.5794      6843.3479      13462.927      141519.25      41.361394      41.361394      82.722789          16000 
    163000   3203.2622      591740.03      1008.182       592669.4       591414.78      591135.91      1443.6403      779.42117     -4501.0206      6624.4521      6697.5345      13321.987      142074.99      41.415466      41.415466      82.830931          16000 
    164000   3182.025       604275.7       1014.7883      604275.19      606096.99      602454.93     -2247.0367     -335.25371     -3082.0777      6580.5328      6783.9097      13364.443      141618.49      41.371061      41.371061      82.742122          16000 
    165000   3193.2359      599010.94      1021.3928      599318.68      600338.46      597375.68     -4878.1869      3051.9457      1339.7163      6603.7173      6762.4955      13366.213      141801.1       41.388834      41.388834      82.777669          16000 
    166000   3205.0166      601566.71      1028.0023      602849.57      600653.65      601196.91     -569.76185     -6.6152106      696.76489      6628.0804      6751.318       13379.398      141685.24      41.37756       41.37756       82.75512           16000 
    167000   3184.041       597793.66      1034.6119      598648.4       598730.55      596002.03      3.9274985      578.41591     -1260.4643      6584.7021      6723.3967      13308.099      141875.43      41.396066      41.396066      82.792131          16000 
    168000   3224.0614      604897.21      1041.2185      603606.36      606063.21      605022.06      1518.7994     -1166.0086      1638.969       6667.4657      6761.8836      13429.349      141633.24      41.372497      41.372497      82.744993          16000 
    169000   3177.6469      598663.2       1047.8265      598389.16      599926.3       597674.14     -3379.3664     -3851.6632      518.12018      6571.4789      6727.5242      13299.003      141786.55      41.387419      41.387419      82.774838          16000 
    170000   3207.4827      600818.18      1054.4341      601779.97      600063.73      600610.83     -493.43726      158.97731     -795.62642      6633.1804      6768.8903      13402.071      141752.91      41.384146      41.384146      82.768291          16000 
    171000   3154.5735      602758.1       1061.0393      600193.63      602857.58      605223.09     -696.01956      76.937144      3246.1274      6523.7623      6776.192       13299.954      141686.21      41.377654      41.377654      82.755308          16000 
    172000   3211.0085      597721.46      1067.6458      597676.99      596906.31      598581.09     -414.45368     -4127.9533     -1312.0334      6640.4717      6768.8157      13409.287      141839.68      41.392588      41.392588      82.785176          16000 
    173000   3189.8113      599893.66      1074.2502      599909.15      600015.13      599756.69     -98.979838      1724.8784     -3218.6372      6596.6352      6775.3751      13372.01       141748.96      41.383761      41.383761      82.767523          16000 
    174000   3205.9462      598166.4       1080.8542      597957.36      597140.15      599401.67      3687.1337      2726.7634      3110.0108      6630.0026      6786.9354      13416.938      141850.74      41.393664      41.393664      82.787328          16000 
    175000   3213.9147      606479.64      1087.4597      606701.83      605125.01      607612.08      2520.3134     -3437.5131      2940.9963      6646.4819      6776.8093      13423.291      141560.06      41.36537       41.36537       82.73074           16000 
    176000   3187.8778      591881.32      1094.0674      593339.62      590227.44      592076.91     -1386.8421     -373.21473     -3210.3277      6592.6366      6660.6621      13253.299      142050.65      41.4131        41.4131        82.8262            16000 
    177000   3212.7485      607490.99      1100.6751      607332.48      608222.49      606918        -3818.6206      476.96851     -371.40052      6644.0701      6801.8591      13445.929      141502.26      41.35974       41.35974       82.719479          16000 
    178000   3219.6632      596716.24      1107.2802      597902.26      596795.68      595450.79     -4818.8987      310.28568      2301.9807      6658.37        6698.3239      13356.694      141848.29      41.393426      41.393426      82.786852          16000 
    179000   3214.5968      600017.64      1113.8878      600394.37      600403.09      599255.47      973.72057      1722.0206     -3353.1613      6647.8924      6771.8341      13419.727      141788.78      41.387637      41.387637      82.775273          16000 
    180000   3200.6843      601468.24      1120.4913      601906.25      600667.51      601830.94     -1414.209      -1192.5148     -2072.0462      6619.1209      6670.1863      13289.307      141729.23      41.381841      41.381841      82.763683          16000 
    181000   3206.9378      599140.09      1127.0978      599357.75      597867.41      600195.1       1265.2495      1501.9498     -471.28775      6632.0533      6695.449       13327.502      141781.17      41.386896      41.386896      82.773792          16000 
    182000   3184.9156      602124.54      1133.7064      602437.28      602007.53      601928.82     -1303.032      -942.86859      1719.908       6586.5107      6826.7229      13413.234      141688.61      41.377887      41.377887      82.755775          16000 
    183000   3167.2993      592620.64      1140.3117      593969.69      592368.26      591523.97      69.256708     -645.82757     -535.36243      6550.0797      6655.03        13205.11       142014.42      41.409579      41.409579      82.819157          16000 
    184000   3182.2091      607676.26      1146.9195      607862.91      606633.07      608532.8       3438.077       335.98608      1607.4073      6580.9136      6845.6202      13426.534      141487.76      41.358326      41.358326      82.716652          16000 
    185000   3178.4922      596299.05      1153.5266      597048.87      595534.94      596313.34     -2786.9507     -2459.1176      1317.0987      6573.2269      6704.8801      13278.107      141876.58      41.396177      41.396177      82.792354          16000 
    186000   3207.949       600931.85      1160.1337      600028.79      601715.07      601051.68     -315.43873      2874.7468     -3082.7704      6634.1446      6750.7172      13384.862      141762.62      41.385091      41.385091      82.770181          16000 
    187000   3180.0916      602554.5       1166.7412      601510.66      602967.39      603185.45     -187.82386     -842.00233     -1995.5611      6576.5346      6797.1091      13373.644      141751.23      41.383982      41.383982      82.767964          16000 
    188000   3189.341       600434.4       1173.3472      599424.07      601850.42      600028.7      -252.10448     -1161.2231      1371.7311      6595.6627      6741.4972      13337.16       141768.52      41.385665      41.385665      82.77133           16000 
    189000   3238.755       600442.47      1179.9541      601423.32      600975.09      598929.01      1412.4332      734.4933      -3355.283       6697.8524      6820.2528      13518.105      141761.61      41.384993      41.384993      82.769986          16000 
    190000   3184.0044      594810.31      1186.5599      595414.16      596258.28      592758.49     -1224.5466     -1570.6884      4566.0245      6584.6263      6620.8401      13205.466      141988.65      41.407074      41.407074      82.814148          16000 
    191000   3185.7346      606132.35      1193.1654      606322.1       608208.86      603866.09     -1110.3499      2124.6922      3421.5954      6588.2045      6846.1501      13434.355      141517.58      41.361232      41.361232      82.722464          16000 
    192000   3171.827       593840.79      1199.7722      594637.07      593604.27      593281.02      1530.8556     -2926.4893      1591.517       6559.4431      6674.2503      13233.693      141937.65      41.402116      41.402116      82.804231          16000 
    193000   3176.8036      603208.94      1206.3776      602260.78      603997.25      603368.78      1819.16       -1030.4797     -1457.1677      6569.7349      6835.411       13405.146      141647.27      41.373863      41.373863      82.747726          16000 
    194000   3189.4589      595647.79      1212.9827      597194.2       595555.65      594193.52     -288.45531     -2669.0079     -1278.9043      6595.9064      6675.3851      13271.292      141913.53      41.39977       41.39977       82.799541          16000 
    195000   3240.4646      602190.3       1219.5901      603711.33      601319.1       601540.47      2081.3508     -2729.9137      5501.1759      6701.3879      6785.4887      13486.877      141741.35      41.383021      41.383021      82.766043          16000 
    196000   3193.7541      597941.15      1226.1976      598989.91      596540.14      598293.42     -2087.3427     -1700.3974     -976.59834      6604.789       6693.0918      13297.881      141836.48      41.392277      41.392277      82.784554          16000 
    197000   3225.5277      604548.24      1232.8035      603985.12      602963.97      606695.61      1519.8473     -3046.9359     -3616.3948      6670.4979      6843.8275      13514.325      141603.88      41.369638      41.369638      82.739275          16000 
    198000   3202.9549      595052.43      1239.4099      594199.64      597117.01      593840.64      536.72366      2286.9785      2866.8112      6623.8167      6656.0284      13279.845      141929.9       41.401362      41.401362      82.802724          16000 
    199000   3209.0207      601793.73      1246.0163      602972.05      601053.42      601355.72      810.64443     -451.34689     -3385.2133      6636.3608      6785.915       13422.276      141708.11      41.379786      41.379786      82.759572          16000 
    200000   3191.0825      598978.3       1252.6279      599805.82      599743.14      597385.93     -1470.563       69.091421     -3264.4634      6599.264       6709.6916      13308.956      141821.95      41.390864      41.390864      82.781728          16000 
    201000   3215.7854      601664.59      1259.2379      598591.57      602431.53      603970.67      1869.7563     -502.17851     -1564.7401      6650.3505      6819.9081      13470.259      141782.68      41.387043      41.387043      82.774085          16000 
    202000   3169.0688      600208.85      1265.8485      598710.38      600756.19      601159.97      1422.1097     -1899.8655     -2465.6974      6553.739       6754.712       13308.451      141750.27      41.383889      41.383889      82.767777          16000 
    203000   3191.8527      597468.89      1272.4558      596395.55      597283.6       598727.5       534.07857     -1846.9616     -541.94872      6600.8569      6791.3433      13392.2        141888.98      41.397383      41.397383      82.794766          16000 
    204000   3167.7942      606477.51      1279.0637      606322.02      606402.91      606707.58     -1221.0363      1611.533      -2577.3881      6551.1031      6782.6955      13333.799      141563.37      41.365693      41.365693      82.731386          16000 
    205000   3191.6273      596758.43      1285.6713      594355.2       597894.54      598025.55      3443.5399      2027.797       3305.4877      6600.3908      6658.8935      13259.284      141916.74      41.400083      41.400083      82.800166          16000 
    206000   3196.5929      603752.39      1292.2784      602594.82      603573.93      605088.41      893.47205      1134.4037     -959.44952      6610.6597      6784.4072      13395.067      141676.32      41.376691      41.376691      82.753381          16000 
    207000   3189.2155      597107.16      1298.8883      597597.57      596693.72      597030.2       2704.6714     -427.4934      -68.104723      6595.403       6691.0741      13286.477      141859.81      41.394546      41.394546      82.789093          16000 
    208000   3202.1833      604292.28      1305.4967      605028.22      604633.83      603214.78     -1653.6733      3049.4531     -1872.8533      6622.2208      6797.5427      13419.764      141630.31      41.372211      41.372211      82.744423          16000 
    209000   3190.8975      593560.4       1312.0923      592406.64      592827.83      595446.71     -593.93135     -1036.3035      96.437633      6598.8815      6676.927       13275.809      141983.12      41.406537      41.406537      82.813074          16000 
    210000   3222.7329      606507.6       1318.6988      605934.89      605273.98      608313.93      1214.6799      269.03162     -3428.6191      6664.7182      6814.8206      13479.539      141560.99      41.36546       41.36546       82.730921          16000 
    211000   3161.6354      596805.72      1325.3071      596600.93      596109.66      597706.57      1549.8132     -594.64917     -1210.8301      6538.3665      6690.3669      13228.733      141858.15      41.394384      41.394384      82.788769          16000 
    212000   3216.3972      601104.3       1331.9124      603629.45      599988.13      599695.31      305.48886     -848.03884      1575.8442      6651.6158      6751.3801      13402.996      141740.89      41.382976      41.382976      82.765952          16000 
    213000   3203.9732      598027.96      1338.521       598298.61      597302.14      598483.13     -4093.201       4386.7329      1413.8301      6625.9225      6689.4215      13315.344      141808.66      41.38957       41.38957       82.77914           16000 
    214000   3213.2275      599137.01      1345.1311      599898.9       598733.64      598778.49     -469.6339      -281.22179      325.00825      6645.0608      6782.4752      13427.536      141831.22      41.391765      41.391765      82.783529          16000 
    215000   3215.7883      600758.69      1351.7366      602528.41      597664.82      602082.85      2115.7774      1060.4187     -956.81341      6650.3566      6724.6414      13374.998      141708         41.379775      41.379775      82.75955           16000 
    216000   3195.8666      599179.28      1358.3456      600661.38      599411.42      597465.05      758.33795      4341.2074     -2347.1617      6609.1578      6787.5396      13396.697      141830.4       41.391685      41.391685      82.78337           16000 
    217000   3204.7157      600742.47      1364.9537      602071.07      599890.18      600266.15     -2715.1595      3882.5673      819.18475      6627.4581      6794.8205      13422.279      141746.85      41.383556      41.383556      82.767112          16000 
    218000   3185.2842      596924.76      1371.5598      597446.72      597673.73      595653.84      6350.0221      2238.0946     -1286.2965      6587.2731      6674.6739      13261.947      141926.01      41.400984      41.400984      82.801968          16000 
    219000   3225.3861      603658.23      1378.1657      602379.73      604772         603822.97      3578.4591     -1205.1958     -2452.9608      6670.2051      6772.6939      13442.899      141715.61      41.380515      41.380515      82.76103           16000 
    220000   3158.5059      596140.55      1384.7745      596798.06      593522.8       598100.78      1480.2259     -1776.0802      2169.1722      6531.8946      6702.0831      13233.978      141891.08      41.397587      41.397587      82.795174          16000 
    221000   3208.3305      604078.32      1391.3821      603541.68      604512.5       604180.79     -21.403181      1166.3957      2871.2849      6634.9336      6804.3607      13439.294      141649.08      41.374039      41.374039      82.748079          16000 
    222000   3181.7494      598172.99      1397.9922      596558.22      598675.56      599285.18     -1915.27       -1219.3529      4365.6658      6579.963       6760.9433      13340.906      141854.17      41.393997      41.393997      82.787995          16000 
    223000   3180.5723      602695.77      1404.5995      603980.16      601496.35      602610.81     -96.162848      227.14921      1119.2979      6577.5288      6774.8578      13352.387      141686.59      41.37769       41.37769       82.755381          16000 
    224000   3207.8712      598032.62      1411.2067      598654.76      598773.32      596669.76     -1349.9992      1181.6107     -2757.7909      6633.9837      6740.1557      13374.139      141851.25      41.393713      41.393713      82.787427          16000 
    225000   3234.4816      602735.42      1417.8165      602486.49      604430.86      601288.91      703.13514     -654.08085      745.23298      6689.0148      6777.4189      13466.434      141720.61      41.381003      41.381003      82.762005          16000 
    226000   3160.7881      595058.23      1424.4254      594844.08      596376.09      593954.53      84.474647     -114.37585      2817.1367      6536.6144      6651.2846      13187.899      141955.73      41.403874      41.403874      82.807748          16000 
    227000   3205.3249      602289.79      1431.0335      599949.16      604659.79      602260.41      1330.4862     -653.49964     -1648.4489      6628.7178      6786.2812      13414.999      141684.85      41.377521      41.377521      82.755043          16000 
    228000   3186.5239      600884.16      1437.6398      601969.35      600789.35      599893.79      104.56862      3807.2313      2038.6503      6589.8368      6687.1148      13276.952      141757.46      41.384589      41.384589      82.769178          16000 
    229000   3200.6304      598896.84      1444.2444      597524.77      599076.41      600089.35      2969.863      -857.15821      370.49966      6619.0094      6747.778       13366.787      141836.48      41.392277      41.392277      82.784554          16000 
    230000   3226.4029      600305.61      1450.8658      599074.88      601093.2       600748.75      4165.932       574.43267      701.38359      6672.3079      6683.8596      13356.168      141774.01      41.386199      41.386199      82.772399          16000 
    231000   3191.1332      601383.17      1457.472       600723.84      600901.87      602523.81     -2615.0061     -261.89757      3300.034       6599.3689      6761.2191      13360.588      141731.82      41.382094      41.382094      82.764187          16000 
    232000   3181.3194      599578.28      1464.0743      600130.66      598796.54      599807.65     -2018.4857     -1779.9684     -1533.8128      6579.0737      6792.6004      13371.674      141816.81      41.390363      41.390363      82.780726          16000 
    233000   3193.2633      599596.49      1470.6798      599173.84      600850.75      598764.87      258.57826      41.384813     -106.55287      6603.774       6727.9393      13331.713      141790.63      41.387817      41.387817      82.775633          16000 
    234000   3182.5173      604002.64      1477.2865      604981.68      604056.31      602969.94     -3156.7346     -1205.9447      2351.0783      6581.5511      6809.5569      13391.108      141657.38      41.374847      41.374847      82.749695          16000 
    235000   3181.0233      598701.83      1483.8914      599069.77      597337.17      599698.53     -870.90705     -910.59848      1582.6315      6578.4613      6723.3747      13301.836      141848.61      41.393457      41.393457      82.786914          16000 
    236000   3197.5049      603453.39      1490.4961      602991.33      602526.42      604842.43      219.71005      3085.2223     -2105.6724      6612.5459      6809.4093      13421.955      141693.55      41.378369      41.378369      82.756737          16000 
    237000   3174.6438      596362.21      1497.1014      597206.03      596682.17      595198.44     -1395.7175      788.91571     -4644.1677      6565.2684      6692.6338      13257.902      141932.68      41.401633      41.401633      82.803266          16000 
    238000   3244.9492      602353.94      1503.7073      602736.93      602986.27      601338.62      3430.8763      581.1128      -886.64529      6710.6623      6722.7925      13433.455      141719.9       41.380933      41.380933      82.761865          16000 
    239000   3167.4274      598052.14      1510.3123      598197.67      599813.28      596145.47      872.73769     -805.85282     -2347.9248      6550.3446      6709.4846      13259.829      141854.01      41.393982      41.393982      82.787965          16000 
    240000   3187.7118      603110.21      1516.9173      603926.63      603771.23      601632.77      466.60879     -2597.2072      440.07862      6592.2934      6819.8227      13412.116      141736.17      41.382517      41.382517      82.765033          16000 
    241000   3173.5105      595234.54      1523.522       596503.37      595694.04      593506.23      277.74303      829.26755     -1877.9506      6562.9246      6643.6868      13206.611      141921.72      41.400567      41.400567      82.801135          16000 
    242000   3213.145       604598.03      1530.1284      605896.2       602395.48      605502.42     -4050.8093     -241.24749     -5932.2019      6644.89        6799.7016      13444.592      141669.41      41.376018      41.376018      82.752036          16000 
    243000   3189.8304      600548.74      1536.7363      602360.81      599519.68      599765.72      4307.8535     -961.14463      170.33015      6596.6748      6783.6227      13380.297      141760.99      41.384932      41.384932      82.769864          16000 
    244000   3237.4908      598595.04      1543.3408      598607.13      596766.88      600411.1      -5488.1601     -1425.6485      1631.1449      6695.2381      6706.8334      13402.072      141839.67      41.392588      41.392588      82.785175          16000 
    245000   3167.0772      598684.05      1549.9485      598568.49      598826.85      598656.82     -2408.8901      2482.7888      503.88548      6549.6203      6655.027       13204.647      141814.16      41.390106      41.390106      82.780211          16000 
    246000   3149.7566      602856.75      1556.5531      606257.41      601937.02      600375.81     -186.31837     -369.39358      1274.1475      6513.8009      6864.4862      13378.287      141656.01      41.374714      41.374714      82.749428          16000 
    247000   3168.2731      597159.91      1563.1583      596825.44      596295.6       598358.71      1289.8981     -1664.0933     -1096.2294      6552.0934      6760.7077      13312.801      141882.1       41.396714      41.396714      82.793428          16000 
    248000   3227.5438      599058.09      1569.7632      599857.14      597800.3       599516.83     -982.76889      59.168396      1241.0714      6674.6674      6748.746       13423.413      141794.68      41.38821       41.38821       82.77642           16000 
    249000   3192.7936      601107.98      1576.371       601055.61      601992.65      600275.67     -2068.8921     -1422.5995     -517.17443      6602.8026      6732.4833      13335.286      141768.83      41.385695      41.385695      82.77139           16000 
    250000   3217.7772      598725.19      1582.9756      598569.95      596803.36      600802.26      1885.1001      2185.4442      38.725268      6654.4696      6803.1846      13457.654      141838.49      41.392473      41.392473      82.784945          16000 
    251000   3202.3426      603979.57      1589.5806      604308.12      602721.47      604909.12     -3353.5329      1759.7201     -2475.8315      6622.5504      6772.5395      13395.09       141629.47      41.37213       41.37213       82.74426           16000 
    252000   3229.7199      595215.52      1596.1864      596520.32      595194.28      593931.98      426.60818     -860.80248      4906.4141      6679.1675      6672.1804      13351.348      141901.43      41.398594      41.398594      82.797187          16000 
    253000   3236.2477      608290.7       1602.791       607947.37      608149.1       608775.62     -2827.045      -1452.1094      911.13385      6692.6673      6912.2338      13604.901      141526.49      41.3621        41.3621        82.724199          16000 
    254000   3178.6631      593642.42      1609.4002      593974.79      592039.34      594913.12      22.005266      5056.4079      918.16716      6573.5804      6689.5383      13263.119      141934.57      41.401817      41.401817      82.803633          16000 
    255000   3214.7898      605595.53      1616.0046      604717.81      607572.95      604495.82     -208.25902      3395.3088      164.74366      6648.2915      6789.7771      13438.069      141562.56      41.365614      41.365614      82.731227          16000 
    256000   3184.627       596168         1622.6086      596467.06      596546.13      595490.81      14.475342      2429.523      -255.70088      6585.914       6755.6744      13341.588      141906.96      41.399132      41.399132      82.798263          16000 
    257000   3185.8095      601219.69      1629.2136      602826.52      601555.42      599277.13      687.36674      4997.3955      2586.957       6588.3593      6673.1022      13261.461      141707.7       41.379746      41.379746      82.759492          16000 
    258000   3178.1895      598845.55      1635.8153      597845.37      599690.32      599000.96      1828.3806     -1172.3308      2693.7717      6572.6009      6785.0907      13357.692      141858.05      41.394375      41.394375      82.78875           16000 
    259000   3185.21        597815.7       1642.4196      598352.22      597537.13      597557.74      1296.5025     -2760.1526     -4852.4073      6587.1195      6635.2675      13222.387      141833.31      41.391968      41.391968      82.783937          16000 
    260000   3195.3042      605312.87      1649.0255      604422.5       606119.17      605396.92      3859.3423     -3143.8489     -1166.5746      6607.9948      6839.8373      13447.832      141673.93      41.376459      41.376459      82.752917          16000 
    261000   3179.848       595246.27      1655.6306      595843.55      593603.83      596291.43      895.70979     -645.01377     -3331.9957      6576.0307      6638.7439      13214.775      141948.58      41.403179      41.403179      82.806357          16000 
    262000   3188.9756      606329.28      1662.2355      606202.27      606667.31      606118.25      1628.2558      2180.9023     -2866.8912      6594.907       6900.7274      13495.634      141597.89      41.369055      41.369055      82.73811           16000 
    263000   3192.306       598420.94      1668.8376      597967.49      599270.68      598024.66     -2695.546       669.96245      226.42782      6601.7944      6695.7125      13297.507      141848.06      41.393404      41.393404      82.786807          16000 
    264000   3197.3848      602431.49      1675.442       601076.99      602524.77      603692.72      976.69281      2120.6406     -461.76388      6612.2976      6850.4411      13462.739      141713.94      41.380353      41.380353      82.760706          16000 
    265000   3166.2671      597705.23      1682.0495      598685.43      597961.27      596468.99     -874.48683     -423.97356      1097.895       6547.9451      6787.9277      13335.873      141826.69      41.391324      41.391324      82.782648          16000 
    266000   3176.8         602236.98      1688.6579      604146.66      600830.24      601734.05     -4415.4029      57.829294      1626.0285      6569.7275      6814.5286      13384.256      141696.18      41.378624      41.378624      82.757248          16000 
    267000   3200.5227      599292.47      1695.2649      598411.71      600771.25      598694.45     -270.61564     -1064.4331      3160.2818      6618.7868      6823.5869      13442.374      141836.5       41.392279      41.392279      82.784557          16000 
    268000   3189.4465      600365.05      1701.8722      600484.69      599371.25      601239.19      239.97598     -976.37005     -2832.7678      6595.8808      6699.3547      13295.236      141747.13      41.383583      41.383583      82.767167          16000 
    269000   3196.8739      601656.04      1708.4799      602204.57      601810.58      600952.97      1145.752      -1588.1765      3593.9408      6611.241       6776.6294      13387.87       141736.79      41.382577      41.382577      82.765154          16000 
    270000   3192.721       599576.97      1715.0856      600289.52      600156.86      598284.55     -1180.6503      1395.1449      190.19421      6602.6526      6752.9672      13355.62       141826.18      41.391275      41.391275      82.78255           16000 
    271000   3158.7147      603061.58      1721.6942      602210         603832.14      603142.6      -2721.5083      453.37343      29.80677       6532.3265      6810.9928      13343.319      141662.72      41.375367      41.375367      82.750734          16000 
    272000   3192.7699      598484.55      1728.2987      599849.49      599938.57      595665.58      3516.8988      5171.0931     -1874.4244      6602.7536      6786.4681      13389.222      141861.5       41.39471       41.39471       82.789421          16000 
    273000   3198.1984      599615.85      1734.9038      599973         601290.8       597583.74     -2403.8498      2014.63       -2421.1573      6613.9801      6713.2232      13327.203      141793.7       41.388115      41.388115      82.77623           16000 
    274000   3207.1667      601226.05      1741.5122      601945.8       600813.67      600918.7       3064.9489     -409.35977      2586.8686      6632.5269      6800.7969      13433.324      141717.22      41.380672      41.380672      82.761344          16000 
    275000   3209.8315      596143.46      1748.1238      596420.01      596373.57      595636.8      -825.02151     -485.93257     -2497.9138      6638.0378      6698.4438      13336.482      141876.41      41.396161      41.396161      82.792322          16000 
    276000   3181.4318      605024.49      1754.7286      605564.95      605537.26      603971.28      1441.3996      2134.7131      434.32756      6579.3062      6838.9653      13418.271      141574.51      41.366777      41.366777      82.733555          16000 
    277000   3237.8344      595822.28      1761.3353      595185.24      595323.6       596957.99     -116.41511      1575.3927      1057.105       6695.9485      6787.4268      13483.375      141925.73      41.400957      41.400957      82.801914          16000 
    278000   3168.8179      601437.46      1767.9436      601408.99      601259.9       601643.5       983.83276      6104.7825     -1236.0657      6553.2203      6863.4251      13416.645      141730.21      41.381937      41.381937      82.763874          16000 
    279000   3227.4679      599373.29      1774.5518      598761.57      600565.91      598792.37      15.12814      -977.80382      1525.0567      6674.5102      6704.6892      13379.199      141799.23      41.388653      41.388653      82.777307          16000 
    280000   3235.4591      599275.88      1781.1594      599750.77      598470.54      599606.31     -912.80756      618.12889     -1091.1749      6691.0365      6709.4431      13400.48       141813.14      41.390007      41.390007      82.780013          16000 
    281000   3206.9648      601012.11      1787.7675      599926.65      599215.48      603894.2       2084.1045      2182.211      -2518.3972      6632.1091      6744.7515      13376.861      141703.8       41.379366      41.379366      82.758732          16000 
    282000   3207.3352      597947.95      1794.373       598303.6       596705.95      598834.3       2560.7136     -1480.5666      3104.7087      6632.8753      6751.369       13384.244      141930.87      41.401457      41.401457      82.802914          16000 
    283000   3196.5233      602356.25      1800.9822      603252.51      602648.01      601168.22      1332.227       4967.3905      5012.5075      6610.5158      6681.3191      13291.835      141626.1       41.371801      41.371801      82.743603          16000 
    284000   3236.8081      594784.57      1807.5877      595254.69      594957.79      594141.24      2505.9723      4989.218       798.72459      6693.8262      6681.6306      13375.457      141939.8       41.402325      41.402325      82.80465           16000 
    285000   3190.4213      605003.69      1814.1947      603994.69      605641.53      605374.84     -4158.1457      1112.3612     -6376.4298      6597.8967      6814.3901      13412.287      141584.05      41.367707      41.367707      82.735414          16000 
[...]
   3930000   3874.83        600977.23      6764.2596      600065.37      593310.01      609556.31     -6598.8032     -1394.2839      965.67554      8013.2765      8537.5636      16550.84       142651.31      41.571402      41.571402      82.544174          16000 
   3931000   3877.6338      598644.02      6771.5305      597021.81      595792.21      603118.04      824.57576     -5572.3164      4005.6738      8019.075       8501.3656      16520.441      142730.74      41.579116      41.579116      82.559491          16000 
   3932000   3870.6322      609741.35      6778.8045      606631.83      605778.2       616814.01     -2519.945       1665.1263      3138.8392      8004.5953      8679.9865      16684.582      142294.51      41.536713      41.536713      82.475297          16000 
   3933000   3880.883       595075.56      6786.08        590802.49      592348.7       602075.5       3936.1559     -1975.7637     -104.61139      8025.7943      8434.8761      16460.67       142888.95      41.594473      41.594473      82.589984          16000 
   3934000   3894.032       605601.91      6793.3544      602202.29      602145.02      612458.43      804.64746      1426.4095      5038.1721      8052.987       8535.2083      16588.195      142546.61      41.561229      41.561229      82.523975          16000 
   3935000   3892.9965      597338.15      6800.6327      593388.51      593170.55      605455.38     -1055.7529      1206.6202     -799.09621      8050.8455      8466.4579      16517.303      142733.67      41.5794        41.5794        82.560056          16000 
   3936000   3929.5904      602472.81      6807.908       600098.2       597531.91      609788.34     -2257.8568     -885.70016     -1430.0221      8126.5229      8437.7696      16564.293      142607.14      41.567111      41.567111      82.535655          16000 
   3937000   3870.8604      595656.07      6815.1794      592922.51      589190.43      604855.27     -989.56668      4852.8971      234.98365      8005.0672      8451.4169      16456.484      142895.75      41.595133      41.595133      82.591296          16000 
   3938000   3907.4821      602224.95      6822.4552      599017.68      596258.04      611399.14     -121.47625      1458.8195     -861.99387      8080.8021      8493.8212      16574.623      142577.6       41.564241      41.564241      82.529955          16000 
   3939000   3905.8028      600316.85      6829.7324      597174.96      595388.87      608386.73     -1911.2605      477.76554      984.19365      8077.3292      8464.3931      16541.722      142663.9       41.572625      41.572625      82.546603          16000 
   3940000   3921.2452      595733.99      6837.0123      591144.16      592570.86      603486.95     -1445.6492     -1861.8262      251.44454      8109.2646      8372.746       16482.011      142822.75      41.588048      41.588048      82.577227          16000 
   3941000   3912.624       604747.74      6844.2916      599232.83      602826.22      612184.16     -1416.3905     -3656.0729     -1438.1328      8091.4358      8500.8376      16592.273      142526.61      41.559285      41.559285      82.520114          16000 
   3942000   3880.5838      598681.89      6851.5678      594297.01      597226.69      604521.98      1620.983       2529.8063     -3225.5485      8025.1756      8461.0694      16486.245      142808.94      41.586709      41.586709      82.574567          16000 
   3943000   3869.6941      602521         6858.8427      599111.52      598622.18      609829.3      -1224.7745      2999.6614      2658.0624      8002.6554      8558.6909      16561.346      142607.86      41.56718       41.56718       82.535792          16000 
   3944000   3882.3343      597842.68      6866.114       594932.51      593043.64      605551.9      -1558.3886      410.92619      1733.5706      8028.7956      8475.5861      16504.382      142759.03      41.581863      41.581863      82.564946          16000 
   3945000   3930.335       597161.33      6873.3888      594503         591506.94      605474.05      1110.6555     -6654.7645      312.71856      8128.0627      8365.9854      16494.048      142786.02      41.584483      41.584483      82.570149          16000 
   3946000   3889.5543      603775.21      6880.6652      599779.17      600315.06      611231.4      -2392.8844     -3167.9489      1288.429       8043.7269      8539.9245      16583.651      142546.1       41.56118       41.56118       82.523877          16000 
   3947000   3939.3743      596593.98      6887.9421      591511.98      592979.05      605290.9      -1672.7982     -2106.6851     -615.31259      8146.7563      8336.6672      16483.424      142811.85      41.586991      41.586991      82.575128          16000 
   3948000   3895.4583      602119.16      6895.2105      597194         599836.77      609326.71      1735.9397     -29.784133     -2565.3294      8055.9365      8497.4011      16553.338      142623.53      41.568703      41.568703      82.538816          16000 
   3949000   3889.4201      599614.5       6902.4838      594621.89      595936.03      608285.59      974.24219     -5170.0287      1320.4182      8043.4493      8435.0096      16478.459      142822.21      41.587996      41.587996      82.577124          16000 
   3950000   3901.8214      597609.85      6909.7557      594707.12      591617.64      606504.8      -1170.9446     -1404.4388      2081.2507      8069.0957      8452.652       16521.748      142703.68      41.576489      41.576489      82.554274          16000 
   3951000   3867.5276      601742.51      6917.0309      599170.09      596092.63      609964.81      1985.7127      4269.8901     -164.94175      7998.1749      8563.123       16561.298      142598.43      41.566264      41.566264      82.533973          16000 
   3952000   3882.4474      596106.8       6924.3047      591320.93      594818.7       602180.76     -1147.4148     -3316.2122      1724.3655      8029.0297      8438.5735      16467.603      142846.82      41.590385      41.590385      82.581868          16000 
   3953000   3900.7712      602509.82      6931.589       599741.92      598721.46      609066.08     -727.03305      3881.6741      1592.0753      8066.9239      8490.2061      16557.13       142606.55      41.567053      41.567053      82.535539          16000 
   3954000   3863.875       595862.97      6938.8694      593378.02      589715.25      604495.63     -2515.1177      2175.198       253.32734      7990.6213      8497.4526      16488.074      142789.25      41.584797      41.584797      82.570771          16000 
   3955000   3902.2003      607251.97      6946.1477      602367.01      603401.64      615987.28      2089.1934      2146.9825     -3228.4594      8069.8793      8555.9544      16625.834      142420.38      41.548957      41.548957      82.499608          16000 
   3956000   3909.7379      592332.41      6953.421       588526.11      587809.34      600661.78      4374.8117     -176.19521      3093.242       8085.4672      8335.3973      16420.864      142964.98      41.601849      41.601849      82.60463           16000 
   3957000   3904.5583      602874.48      6960.6983      599877.3       596573.57      612172.56     -5848.1731      3115.0463     -559.40041      8074.7556      8485.8254      16560.581      142589.22      41.56537       41.56537       82.532197          16000 
   3958000   3876.3161      598491.54      6967.9735      595976.66      594041.64      605456.3       4749.9219     -364.17446      1214.3473      8016.3498      8471.4527      16487.802      142783.53      41.584242      41.584242      82.569669          16000 
   3959000   3862.1704      600915.35      6975.2375      597594.74      596606.28      608545.04     -3956.6357      5356.374      -338.27562      7987.096       8526.6152      16513.711      142713.93      41.577484      41.577484      82.556251          16000 
   3960000   3884.2246      601835.72      6982.5084      595822.54      598977.66      610706.97      1038.2605      397.7582      -3440.5721      8032.7049      8496.1083      16528.813      142670.63      41.573278      41.573278      82.5479            16000 
   3961000   3860.8005      594558.59      6989.7743      592512.9       589009.21      602153.66      5556.1794     -114.22701     -4070.5583      7984.2631      8460.0291      16444.292      142897.07      41.595261      41.595261      82.59155           16000 
   3962000   3889.4007      602253.12      6997.0474      597268.25      598504.13      610986.98     -2039.7439      3899.8688      1255.6956      8043.4091      8522.5561      16565.965      142571.17      41.563616      41.563616      82.528714          16000 
   3963000   3893.3609      599411.37      7004.3178      598103.02      591926.57      608204.53      1262.857       1768.1901     -1186.325       8051.5991      8448.5492      16500.148      142746.51      41.580647      41.580647      82.562532          16000 
   3964000   3937.2174      601978.74      7011.59        597854.41      599001.38      609080.42      2314.1825      3079.6794     -6075.4123      8142.2957      8403.0676      16545.363      142624.4       41.568787      41.568787      82.538983          16000 
   3965000   3877.4817      604110.81      7018.8646      601116.76      600818.71      610396.97      5897.1941      3827.933       2663.3901      8018.7603      8545.1855      16563.946      142573.64      41.563856      41.563856      82.529191          16000 
   3966000   3876.6163      596211.28      7026.1378      591469.73      593382.63      603781.49      4903.7831     -1216.2052      354.57468      8016.9706      8472.0855      16489.056      142772.9       41.58321       41.58321       82.56762           16000 
   3967000   3886.8555      601045.21      7033.4094      598288.97      596308.6       608538.05     -2708.5445      78.552902     -2093.2146      8038.1456      8500.7051      16538.851      142636.7       41.569983      41.569983      82.541356          16000 
   3968000   3879.8829      602610.87      7040.6809      600467.27      598605.39      608759.94      2555.521       2794.2545      2201.2397      8023.726       8525.5523      16549.278      142606.32      41.567031      41.567031      82.535495          16000 
   3969000   3924.8042      599123.98      7047.9493      596360.6       594350.99      606660.35     -3850.0443     -3848.2633     -522.35515      8116.6249      8395.3942      16512.019      142705.45      41.57666       41.57666       82.554615          16000 
   3970000   3882.4911      594483.18      7055.2172      590164.68      591239.99      602044.86      2820.0749      162.95827     -1659.8212      8029.12        8418.1134      16447.233      142878.64      41.593472      41.593472      82.587998          16000 
   3971000   3880.054       604019.39      7062.4832      601453.4       601251.16      609353.61      180.05077      1372.2851     -2857.002       8024.08        8554.7032      16578.783      142525.1       41.559138      41.559138      82.519824          16000 
   3972000   3878.8456      595339.49      7069.7533      591395.64      591198.53      603424.29     -2134.2557      1082.3106     -1890.49        8021.581       8439.8901      16461.471      142837.89      41.589518      41.589518      82.580145          16000 
   3973000   3879.3099      600930.63      7077.0238      596144.93      598442.98      608203.97     -1514.4507     -1039.6261      3001.1226      8022.5411      8517.4538      16539.995      142625.24      41.568869      41.568869      82.539145          16000 
   3974000   3897.3729      600465.82      7084.2945      598345.74      596244.41      606807.33      786.27753      2630.1644     -776.99361      8059.8959      8467.5373      16527.433      142657.01      41.571956      41.571956      82.545274          16000 
   3975000   3857.1425      597837.96      7091.5655      592402.52      594085.66      607025.69      1837.442      -3196.4351      4119.256       7976.6983      8505.48        16482.178      142777.98      41.583703      41.583703      82.568599          16000 
   3976000   3916.2532      607321.34      7098.8346      603545.29      604751.98      613666.73     -2614.8076     -1622.923       4036.4502      8098.9411      8512.7217      16611.663      142429.96      41.549889      41.549889      82.501458          16000 
   3977000   3874.0073      594733.68      7106.1026      591331.04      593291.54      599578.47     -1557.5879      345.73154      1868.5203      8011.5751      8447.2564      16458.831      142836.29      41.589363      41.589363      82.579838          16000 
   3978000   3904.3616      602153.51      7113.3733      599443.57      597494.52      609522.45      189.12772      3163.4232     -1775.0605      8074.3488      8480.0291      16554.378      142579.91      41.564465      41.564465      82.5304            16000 
   3979000   3877.096       599113.21      7120.6421      595678.8       596370.19      605290.66      3199.1763      253.4389      -2327.8498      8017.9628      8472.6688      16490.632      142746.06      41.580604      41.580604      82.562446          16000 
   3980000   3885.478       599896.82      7127.9104      598436.65      595363.57      605890.25     -4924.9978      3651.4804     -1864.9611      8035.297       8463.2223      16498.519      142724.82      41.578542      41.578542      82.558351          16000 
   3981000   3849.769       598529.66      7135.1779      595707.46      594636.35      605245.16     -1473.7331      1670.1337      3386.9851      7961.4496      8537.3583      16498.808      142724.39      41.5785        41.5785        82.558268          16000 
   3982000   3858.9953      601763.59      7142.4492      596016.71      598580.7       610693.34     -3797.9339     -1997.6278     -453.73778      7980.5299      8565.4872      16546.017      142597.38      41.566162      41.566162      82.53377           16000 
   3983000   3905.9237      592478.23      7149.7218      589030.38      588506.39      599897.92     -961.54355      456.47632      3428.2024      8077.5792      8343.2989      16420.878      142930.03      41.598459      41.598459      82.597899          16000 
   3984000   3891.0789      600582         7156.9957      598512.63      597727.43      605505.92     -613.87757     -41.481879      3510.1984      8046.8798      8474.8334      16521.713      142657.54      41.572007      41.572007      82.545376          16000 
   3985000   3894.5536      602262.1       7164.2719      598470.51      597917.48      610398.32      2950.3422     -4941.586       1787.6828      8054.0656      8485.4617      16539.527      142609         41.567291      41.567291      82.536012          16000 
   3986000   3876.2669      598289.26      7171.5436      594780.58      596920.68      603166.53     -1142.1237     -831.20944     -2009.7008      8016.248       8466.8474      16483.095      142755.12      41.581483      41.581483      82.564192          16000 
   3987000   3896.5018      602156.17      7178.8186      596167.01      597849.09      612452.41      1945.369       1825.094      -1380.3864      8058.0946      8491.5294      16549.624      142576.42      41.564125      41.564125      82.529726          16000 
   3988000   3882.7944      596738.19      7186.0884      592025.28      593540.37      604648.93     -803.92119      1982.9789     -810.31371      8029.7473      8437.0231      16466.77       142796.4       41.585491      41.585491      82.572149          16000 
   3989000   3880.7488      601754.57      7193.3589      597332.87      598791.92      609138.94      1661.1883     -1601.9898     -10.960796      8025.5168      8503.3879      16528.905      142628.14      41.569151      41.569151      82.539705          16000 
   3990000   3911.1848      600668.12      7200.6327      595352.44      595438.25      611213.67      247.59637     -879.12243      2203.1714      8088.4594      8410.7853      16499.245      142705.16      41.576632      41.576632      82.554559          16000 
   3991000   3909.3126      597342.83      7207.9042      595087.94      591243.57      605696.99      2829.4162      1186.7679      596.73271      8084.5877      8389.2664      16473.854      142772.64      41.583184      41.583184      82.567569          16000 
   3992000   3922.9205      602733.15      7215.1741      599642.39      598673.44      609883.62      5655.4844     -43.342634      4150.6961      8112.7292      8445.0414      16557.771      142546.72      41.561239      41.561239      82.523995          16000 
   3993000   3870.3507      597933.62      7222.45        594693.91      593221.21      605885.74      760.58354      1194.323      -2461.5878      8004.0133      8482.4806      16486.494      142736.92      41.579716      41.579716      82.560683          16000 
   3994000   3895.1581      606665.15      7229.7251      604218.08      600617.13      615160.24     -3245.9768      1497.6687      1755.4253      8055.3157      8531.4948      16586.81       142466.82      41.553472      41.553472      82.508573          16000 
   3995000   3884.3738      594881.41      7237           590119.08      592809.81      601715.35     -4268.5898      1274.7314     -1178.1739      8033.0134      8405.0397      16438.053      142863.26      41.59198       41.59198       82.585034          16000 
   3996000   3921.0454      601508.16      7244.2757      597582.75      595848.37      611093.35     -1232.8638      1185.1716      158.46838      8108.8514      8429.9685      16538.82       142592.95      41.565732      41.565732      82.532916          16000 
   3997000   3888.1813      599959.97      7251.551       593652.39      597202.22      609025.31      1462.1907     -1683.3087     -741.32668      8040.8876      8474.7606      16515.648      142654.84      41.571745      41.571745      82.544855          16000 
   3998000   3919.5362      599021.93      7258.8261      595243.51      593882.83      607939.45      388.22907      477.42519     -979.93375      8105.7304      8378.8902      16484.621      142736.03      41.57963       41.57963       82.560511          16000 
   3999000   3895.7682      601196.13      7266.0969      599854.37      595029.02      608705        -876.4149       3119.3236     -3941.6093      8056.5773      8466.0179      16522.595      142633.42      41.569663      41.569663      82.540722          16000 
   4000000   3876.9743      599113.93      7273.4035      596699.44      594496.37      606145.97      1328.5156     -26.051484     -690.72726      8017.711       8455.4976      16473.209      142763.64      41.582311      41.582311      82.565835          16000 
Loop time of 7273.4 on 8 procs for 1000000 steps with 16000 atoms

Performance: 5.939 ns/day, 4.041 hours/ns, 137.487 timesteps/s
59.7% CPU use with 1 MPI tasks x 8 OpenMP threads

MPI task timing breakdown:
Section |  min time  |  avg time  |  max time  |%varavg| %total
---------------------------------------------------------------
Pair    | 6976.8     | 6976.8     | 6976.8     |   0.0 | 95.92
Neigh   | 11.686     | 11.686     | 11.686     |   0.0 |  0.16
Comm    | 40.678     | 40.678     | 40.678     |   0.0 |  0.56
Output  | 4.4951     | 4.4951     | 4.4951     |   0.0 |  0.06
Modify  | 213.02     | 213.02     | 213.02     |   0.0 |  2.93
Other   |            | 26.69      |            |       |  0.37

Nlocal:          16000 ave       16000 max       16000 min
Histogram: 1 0 0 0 0 0 0 0 0 0
Nghost:          14059 ave       14059 max       14059 min
Histogram: 1 0 0 0 0 0 0 0 0 0
Neighs:              0 ave           0 max           0 min
Histogram: 1 0 0 0 0 0 0 0 0 0
FullNghs:   1.6184e+06 ave  1.6184e+06 max  1.6184e+06 min
Histogram: 1 0 0 0 0 0 0 0 0 0

Total # of neighbors = 1618404
Ave neighs/atom = 101.15025
Neighbor list builds = 29810
Dangerous builds = 0
Total wall time: 7:38:09
