
atom_style atomic
units metal
boundary p p p
#atom_modify sort 0 0.0
newton on

read_data data.lammps
Reading data file ...
  triclinic box = (0 0 0) to (4.3790145 4.3790145 4.3790145) with tilt (-0 0 0)
  1 by 1 by 1 MPI processor grid
  reading atoms ...
  8 atoms
  read_data CPU = 0.002 seconds
replicate 10 10 20
Replicating atoms ...
  triclinic box = (0 0 0) to (43.790145 43.790145 87.58029) with tilt (-0 0 0)
  1 by 1 by 1 MPI processor grid
  16000 atoms
  replicate CPU = 0.006 seconds

### interactions

pair_style flare
pair_coeff * * lmp.flare
Reading potential file lmp.flare with DATE: Thu

# compute unc all flare/std/atom L_inv_lmp.flare sparse_desc_lmp.flare
# compute MaxUnc all reduce max c_unc

mass 1 12.011000
mass 2 28.085000

thermo_style custom step temp press cpu pxx pyy pzz pxy pxz pyz ke pe etotal vol lx ly lz atoms    #c_MaxUnc
thermo 1000
timestep 0.0005
restart 100000 restart_*.dat

#################### Equilibrate at P and T_es ##############################
velocity all create $T 41928459 rot yes dist gaussian
velocity all create 2800 41928459 rot yes dist gaussian
fix mom all momentum 1000 linear 1 1 1 angular

fix 1 all npt temp $T $T $(100.0*dt) iso $P $P $(1000.0*dt)
fix 1 all npt temp 2800 $T $(100.0*dt) iso $P $P $(1000.0*dt)
fix 1 all npt temp 2800 2800 $(100.0*dt) iso $P $P $(1000.0*dt)
fix 1 all npt temp 2800 2800 0.050000000000000002776 iso $P $P $(1000.0*dt)
fix 1 all npt temp 2800 2800 0.050000000000000002776 iso 600000 $P $(1000.0*dt)
fix 1 all npt temp 2800 2800 0.050000000000000002776 iso 600000 600000 $(1000.0*dt)
fix 1 all npt temp 2800 2800 0.050000000000000002776 iso 600000 600000 0.5
dump 1 all custom 1000 1equil.bin id type x y z vx vy vz
run   10000 # report performance
Neighbor list info ...
  update every 1 steps, delay 10 steps, check yes
  max neighbors/atom: 2000, page size: 100000
  master list distance cutoff = 6
  ghost atom cutoff = 6
  binsize = 6, bins = 8 8 15
  1 neighbor lists, perpetual/occasional/extra = 1 0 0
  (1) pair flare/kk, perpetual
      attributes: full, newton on, kokkos_device
      pair build: full/bin/kk/device
      stencil: full/bin/3d
      bin: kk/device
Per MPI rank memory allocation (min/avg/max) = 15.9 | 15.9 | 15.9 Mbytes
   Step          Temp          Press           CPU            Pxx            Pyy            Pzz            Pxy            Pxz            Pyz           KinEng         PotEng         TotEng         Volume           Lx             Ly             Lz          Atoms   
         0   2800           55537.333      0              55258.481      55664.454      55689.064     -388.53912      174.99747     -439.29551      5790.4926     -4109.4047      1681.0878      167941.93      43.790145      43.790145      87.58029           16000 
      1000   2815.2316      598224.11      6.5044783      598013.56      596109.64      600549.12     -1169.3026     -205.76051      659.74296      5821.992       6108.5232      11930.515      141524.55      41.361911      41.361911      82.723822          16000 
      2000   2786.1957      600496.39      12.97875       599476.95      600310.86      601701.37     -340.46997     -2826.3989     -4061.743       5761.9448      5782.8822      11544.827      141313.36      41.341327      41.341327      82.682653          16000 
      3000   2837.562       601091.86      19.451923      600895.32      601598.24      600782.02      1163.913      -5231.6821      1520.0556      5868.1721      5922.3673      11790.539      141371.31      41.346977      41.346977      82.693953          16000 
      4000   2788.9523      600776.54      25.929087      599617.19      600720.46      601991.98      1964.7382     -984.44124     -1925.4323      5767.6456      5855.7452      11623.391      141275.52      41.337637      41.337637      82.675273          16000 
      5000   2792.5715      600273.74      32.404067      599523.83      601242.92      600054.48     -969.0303       1479.2541      1178.8938      5775.1302      5975.503       11750.633      141331.82      41.343127      41.343127      82.686253          16000 
      6000   2790.8652      599707.36      38.879235      598081.52      599946.48      601094.08     -1460.1578      375.49881     -617.52214      5771.6015      5895.4173      11667.019      141293.13      41.339354      41.339354      82.678707          16000 
      7000   2805.3948      599664.64      45.352286      597479.44      599885.35      601629.15     -2256.9722     -15.955181     -170.91599      5801.6491      5943.1552      11744.804      141333.83      41.343323      41.343323      82.686646          16000 
      8000   2812.6368      600808.21      51.824947      602440.14      600484.77      599499.71      2136.0702     -429.97123      2943.7375      5816.6258      5858.3938      11675.02       141283.99      41.338463      41.338463      82.676926          16000 
      9000   2781.2879      598906.91      58.297149      599072.1       600012.54      597636.09      663.24032     -325.17888      1384.7205      5751.7954      5985.799       11737.594      141350.56      41.344954      41.344954      82.689907          16000 
     10000   2773.5258      602683.18      64.770591      603810.18      603150.52      601088.83     -2427.3852     -1657.0835      5217.2373      5735.7431      5954.3754      11690.119      141214.51      41.331685      41.331685      82.66337           16000 
Loop time of 64.7706 on 8 procs for 10000 steps with 16000 atoms

Performance: 6.670 ns/day, 3.598 hours/ns, 154.391 timesteps/s
59.5% CPU use with 1 MPI tasks x 8 OpenMP threads

MPI task timing breakdown:
Section |  min time  |  avg time  |  max time  |%varavg| %total
---------------------------------------------------------------
Pair    | 61.824     | 61.824     | 61.824     |   0.0 | 95.45
Neigh   | 0.063503   | 0.063503   | 0.063503   |   0.0 |  0.10
Comm    | 0.28717    | 0.28717    | 0.28717    |   0.0 |  0.44
Output  | 0.011322   | 0.011322   | 0.011322   |   0.0 |  0.02
Modify  | 2.2986     | 2.2986     | 2.2986     |   0.0 |  3.55
Other   |            | 0.2863     |            |       |  0.44

Nlocal:          16000 ave       16000 max       16000 min
Histogram: 1 0 0 0 0 0 0 0 0 0
Nghost:          13848 ave       13848 max       13848 min
Histogram: 1 0 0 0 0 0 0 0 0 0
Neighs:              0 ave           0 max           0 min
Histogram: 1 0 0 0 0 0 0 0 0 0
FullNghs:  1.63042e+06 ave 1.63042e+06 max 1.63042e+06 min
Histogram: 1 0 0 0 0 0 0 0 0 0

Total # of neighbors = 1630424
Ave neighs/atom = 101.9015
Neighbor list builds = 161
Dangerous builds = 0
run  990000
Per MPI rank memory allocation (min/avg/max) = 16.08 | 16.08 | 16.08 Mbytes
   Step          Temp          Press           CPU            Pxx            Pyy            Pzz            Pxy            Pxz            Pyz           KinEng         PotEng         TotEng         Volume           Lx             Ly             Lz          Atoms   
     10000   2773.5258      602683.18      0              603810.18      603150.52      601088.83     -2427.3852     -1657.0835      5217.2373      5735.7431      5954.3754      11690.119      141214.51      41.331685      41.331685      82.66337           16000 
     11000   2812.3631      595020.52      6.4699832      595390.24      595173.93      594497.39     -466.43926     -4821.8666     -2333.3695      5816.0599      5863.3376      11679.398      141473.84      41.35697       41.35697       82.71394           16000 
     12000   2761.4633      601396.74      12.943886      600331.76      601393.58      602464.87     -5739.4406      1129.6642     -251.45497      5710.7975      5958.6886      11669.486      141237.3       41.333908      41.333908      82.667817          16000 
     13000   2805.9822      602334.81      19.416456      601812.95      602553.59      602637.88     -2023.4172     -1554.3422     -2575.9898      5802.864       6010.5768      11813.441      141204.26      41.330685      41.330685      82.66137           16000 
     14000   2818.3641      597237.59      25.888423      596795.4       598480.99      596436.39      582.23112     -465.95386     -2077.2448      5828.4701      5899.4279      11727.898      141362.74      41.346141      41.346141      82.692283          16000 
     15000   2813.5143      600966.87      32.36072       598525.93      602828.79      601545.89     -1895.4622     -2916.2897      1698.3656      5818.4406      5919.58        11738.021      141248.64      41.335014      41.335014      82.670029          16000 
     16000   2790.5455      598539.67      38.834479      598350.43      599164.71      598103.88      1095.2146      238.90589      3261.2679      5770.9403      5883.9757      11654.916      141316.27      41.341611      41.341611      82.683221          16000 
     17000   2805.5682      600960.71      45.308663      598327.65      602024.27      602530.21     -1214.9855     -1322.6054     -55.790083      5802.0078      5929.1781      11731.186      141227.39      41.332941      41.332941      82.665883          16000 
     18000   2747.22        600479.35      51.78276       600152.31      600615.78      600669.95     -37.59841      -80.279897      558.18223      5681.3419      5884.9786      11566.32       141269.78      41.337077      41.337077      82.674153          16000 
     19000   2791.8442      598765.67      58.257128      598456.32      599407.19      598433.5       1347.1152      2647.216       1912.4776      5773.6262      5954.4297      11728.056      141349.24      41.344826      41.344826      82.689651          16000 
     20000   2775.4543      609412.23      64.728991      610026.49      610182.4       608027.79     -3301.1909      2818.5465     -1159.4067      5739.7312      6030.6298      11770.361      140933.92      41.304291      41.304291      82.608582          16000 
     21000   2798.9056      596116.59      71.202327      595501.78      596803.84      596044.17      3444.5973      3974.8772      105.99192      5788.2293      5858.0663      11646.296      141453.37      41.354975      41.354975      82.70995           16000 
     22000   2802.5545      600492.49      77.676549      599520.9       600890.67      601065.89      2137.4105      893.53888      11.766983      5795.7753      5877.2808      11673.056      141243.79      41.334541      41.334541      82.669082          16000 
     23000   2795.5978      600536.98      84.153893      597475.78      603321.96      600813.2       3950.4436     -1691.9981     -986.1681       5781.3886      5955.2204      11736.609      141272.47      41.337339      41.337339      82.674679          16000 
     24000   2771.9102      599804.6       90.627852      600559.94      599369.21      599484.66     -1981.4299     -654.72081      2046.2418      5732.4019      5993.7047      11726.107      141342.36      41.344155      41.344155      82.688309          16000 
     25000   2765.2577      597483.86      97.102754      597953.51      597432.68      597065.38     -2833.4435      581.80986     -1566.7288      5718.6443      5948.7689      11667.413      141360.53      41.345926      41.345926      82.691853          16000 
     26000   2823.8407      607176.74      103.58312      606340.14      607737.09      607452.98     -2680.7423      1269.1495      1536.1196      5839.7959      6025.237       11865.033      141015.52      41.312261      41.312261      82.624523          16000 
     27000   2795.6002      592734.34      110.06148      593281.24      591814.05      593107.72     -2627.9975      1390.0731     -358.8827       5781.3936      5820.7986      11602.192      141511.65      41.360654      41.360654      82.721308          16000 
     28000   2798.1475      600384.33      116.536        601990.03      600940.24      598222.73     -4834.69        1418.1348      2235.4357      5786.6615      5932.3972      11719.059      141277.29      41.337809      41.337809      82.675617          16000 
     29000   2786.9199      598637         123.00935      598241.68      598438.7       599230.62      1338.0935     -3269.1591      469.2931       5763.4424      5905.1079      11668.55       141321.87      41.342157      41.342157      82.684313          16000 
     30000   2815.1844      601232.41      129.48247      600638.66      601369.98      601688.6      -969.26578     -2435.6804      4694.0656      5821.8944      5957.5033      11779.398      141241.63      41.334331      41.334331      82.668662          16000 
     31000   2818.7097      597224.26      135.95767      595943.64      597740.8       597988.33      53.904507      2510.8593      2206.9215      5829.1847      5876.3737      11705.558      141383.88      41.348202      41.348202      82.696404          16000 
     32000   2802.7698      600717.97      142.43107      601030.5       600789.19      600334.21      2702.5987      1479.39       -1311.4745      5796.2207      5944.2428      11740.463      141209.84      41.331229      41.331229      82.662458          16000 
     33000   2799.0567      604001.59      148.91371      603556.57      605251.67      603196.53     -2184.1699      2389.6651      571.74834      5788.5419      5992.2331      11780.775      141128.24      41.323266      41.323266      82.646533          16000 
     34000   2857.9358      594931.51      155.40275      595105.89      596066.68      593621.95      1195.1262      1115.2182     -2603.2937      5910.3057      5825.1931      11735.499      141483.55      41.357917      41.357917      82.715834          16000 
     35000   2805.9253      603056.98      161.88459      602704.02      602747.09      603719.82      1148.2123     -3780.6702     -2897.0244      5802.7462      5957.049       11759.795      141165.64      41.326917      41.326917      82.653833          16000 
     36000   2814.1175      599067.43      168.37069      600712.59      598628.37      597861.31     -324.79583     -524.22466     -4336.5393      5819.6881      5934.6247      11754.313      141317.58      41.341738      41.341738      82.683476          16000 
     37000   2816.6996      598504.21      174.85743      599116.51      598859.34      597536.78     -934.24038     -300.19298     -653.76804      5825.0279      5891.9757      11717.004      141331.5       41.343095      41.343095      82.68619           16000 
     38000   2780.5798      602326.03      181.34367      602010.6       602738.62      602228.87     -894.1388       446.3763       434.48055      5750.331       5954.9818      11705.313      141175.18      41.327847      41.327847      82.655695          16000 
     39000   2815.4208      599157.48      187.83084      597258.41      600236.48      599977.56      2479.7517     -5399.0621     -1083.7558      5822.3833      5880.1105      11702.494      141311.49      41.341144      41.341144      82.682288          16000 
     40000   2781.7577      595031.2       194.31394      593963.93      596849.93      594279.73      492.99677      1297.5222     -2319.9884      5752.7668      5892.7798      11645.547      141437.09      41.353389      41.353389      82.706777          16000 
     41000   2816.4646      607922.85      200.79834      607255.88      608984.13      607528.54      540.08905      1608.3892     -1724.8569      5824.542       6021.5155      11846.057      141030.36      41.313711      41.313711      82.627422          16000 
     42000   2782.6749      598326.52      207.28353      597440.37      598514.39      599024.8       2856.4613     -2556.9838     -2226.479       5754.6638      5934.1271      11688.791      141331.98      41.343142      41.343142      82.686284          16000 
     43000   2791.1022      600027.9       213.772        600017.67      600829.29      599236.74      855.54899     -5251.4721     -717.55451      5772.0916      5953.7031      11725.795      141278.16      41.337894      41.337894      82.675788          16000 
     44000   2795.2274      601572.31      220.25838      601899.16      601304.26      601513.5       397.00705     -4391.4796     -201.97895      5780.6226      5959.1347      11739.757      141244.57      41.334617      41.334617      82.669234          16000 
     45000   2835.5083      598094.26      226.74223      596774.82      597708.9       599799.07     -1179.9221     -3877.1861      2240.5908      5863.9249      5840.735       11704.66       141342.57      41.344175      41.344175      82.688351          16000 
     46000   2795.0944      604779.6       233.2237       605105.09      604743.55      604490.15     -520.03323      986.01267     -1069.1347      5780.3477      6029.524       11809.872      141110.62      41.321547      41.321547      82.643093          16000 
     47000   2762.5816      599662.02      239.70636      596967.93      600502.71      601515.44      122.69184      1278.5648     -1104.9931      5713.11        5872.5823      11585.692      141244.37      41.334598      41.334598      82.669196          16000 
     48000   2821.4766      595343.42      246.19016      595429.21      595592.36      595008.69     -688.82726     -306.92732     -827.44579      5834.907       5863.1694      11698.076      141451.33      41.354776      41.354776      82.709553          16000 
     49000   2784.8079      602537.44      252.67052      603600.25      601627.37      602384.71     -149.65443      1935.5315     -1501.4553      5759.0749      5943.791       11702.866      141147.17      41.325113      41.325113      82.650227          16000 
     50000   2783.7835      598906.94      259.15419      598386.8       600390.64      597943.39      185.31952     -261.21766     -1081.1905      5756.9564      5916.1472      11673.104      141310.26      41.341024      41.341024      82.682048          16000 
     51000   2788.215       599446.19      265.63623      599334.12      600885.67      598118.79      2679.1627     -2122.7175     -1802.9159      5766.1208      5897.5896      11663.71       141243.9       41.334552      41.334552      82.669103          16000 
     52000   2776.7038      599800.88      272.11868      600893.57      598875.02      599634.05      1508.3677     -1288.6744      293.73027      5742.3153      5899.0454      11641.361      141281.81      41.33825       41.33825       82.6765            16000 
     53000   2820.856       602161.91      278.60189      601601.12      603735.14      601149.46     -769.41712      2389.2801      1877.6046      5833.6234      5957.2785      11790.902      141232.71      41.333461      41.333461      82.666922          16000 
     54000   2803.7047      590878.33      285.0859       590566.52      591620.42      590448.04      1640.683      -553.76344     -1044.1122      5798.1539      5752.9818      11551.136      141599.66      41.369227      41.369227      82.738454          16000 
     55000   2806.759       604839.35      291.57072      603521.7       604638.79      606357.57     -1637.0643      133.19542     -918.08246      5804.4705      5979.9789      11784.449      141096.14      41.320133      41.320133      82.640266          16000 
     56000   2810.6508      598980.82      298.05397      598729.43      598844.31      599368.74     -3517.1864      2606.2364     -2494.9425      5812.5188      5938.666       11751.185      141333.46      41.343286      41.343286      82.686573          16000 
     57000   2773.6279      598710.17      304.53719      600216.51      598508.77      597405.22      2963.924       2211.5152      638.12994      5735.9542      5922.0944      11658.049      141300.92      41.340113      41.340113      82.680226          16000 
     58000   2805.5894      600012.38      311.02221      597927.87      601151.81      600957.46     -1269.8789      761.93512      14.412241      5802.0516      5981.9182      11783.97       141289.35      41.338986      41.338986      82.677971          16000 
     59000   2804.9989      599836.38      317.50632      599361.33      599318.49      600829.33      1096.0778     -395.23237     -2902.6621      5800.8304      5900.4232      11701.254      141301.31      41.340151      41.340151      82.680302          16000 
     60000   2820.023       600360.47      323.9913       598567.53      600522.07      601991.83      405.8247       3469.321       1781.6491      5831.9009      5925.433       11757.334      141320.89      41.342061      41.342061      82.684122          16000 
     61000   2813.0108      596281.91      330.47859      596918.59      596160.18      595766.97     -727.19411     -1351.6464      1843.6556      5817.3993      5885.3233      11702.723      141435.82      41.353266      41.353266      82.706531          16000 
     62000   2784.6205      607414.41      336.96241      607494.46      608440.18      606308.6       899.68969      783.95237      4447.8013      5758.6873      6086.0297      11844.717      140998.18      41.310568      41.310568      82.621136          16000 
     63000   2808.7415      596853.38      343.44835      597256.34      596330.54      596973.25      1267.0876      592.2826       1511.9521      5808.5704      5919.6379      11728.208      141388.54      41.348657      41.348657      82.697314          16000 
     64000   2807.5728      598237.2       349.9351       597818.65      597446.91      599446.03      584.72724      2023.9003      842.52182      5806.1534      5917.6711      11723.825      141363.63      41.346228      41.346228      82.692456          16000 
     65000   2793.0912      600790.06      356.41935      600075.1       601439.78      600855.3       1125.3795      1688.1754     -968.25003      5776.2049      5850.0836      11626.288      141244.99      41.334659      41.334659      82.669317          16000 
     66000   2776.6446      598866.39      362.90483      596754.18      601120.59      598724.39     -604.63509     -32.874355      1520.8868      5742.1929      5972.0444      11714.237      141341.75      41.344095      41.344095      82.68819           16000 
     67000   2796.1043      601968.84      369.39253      603672.48      599655.31      602578.73     -836.93471      2549.8907     -4364.2842      5782.4361      5894.1716      11676.608      141207.21      41.330973      41.330973      82.661945          16000 
     68000   2782.3364      598365.65      375.8794       598105.23      598186.04      598805.67      1521.5393      2314.6672     -1539.1346      5753.9637      5892.5005      11646.464      141322.22      41.342191      41.342191      82.684382          16000 
     69000   2788.6479      600423.57      382.36434      599139.51      600895.42      601235.78     -4158.0842      448.76014     -647.91764      5767.016       5940.3506      11707.367      141267.91      41.336894      41.336894      82.673789          16000 
     70000   2804.2667      607292.53      388.84739      608049.99      608030.36      605797.24     -2940.1345     -2690.0039     -1178.142       5799.3162      6055.3958      11854.712      141070.57      41.317637      41.317637      82.635273          16000 
     71000   2785.2842      595902.4       395.33088      596029.16      595209.17      596468.87     -1773.4693     -1956.5243      518.9801       5760.0598      5926.2634      11686.323      141402.2       41.349988      41.349988      82.699977          16000 
     72000   2771.8809      601733.37      401.81743      602414.53      600856.43      601929.15     -1535.7602      311.9324      -2097.1436      5732.3414      5912.9033      11645.245      141186.17      41.32892       41.32892       82.657839          16000 
     73000   2805.8667      599657.49      408.30189      601051.54      598368.89      599552.05      1225.3363      3162.8857     -308.05339      5802.6252      5933.4108      11736.036      141292.57      41.339299      41.339299      82.678598          16000 
     74000   2786.6394      600757.91      414.78949      601835.51      600850.11      599588.11      4539.3377      845.68759      919.34078      5762.8625      5860.1405      11623.003      141237.65      41.333942      41.333942      82.667884          16000 
     75000   2797.8808      602445.84      421.27459      602811.76      601570.53      602955.21      863.7771      -2138.9299      658.47502      5786.1099      5967.504       11753.614      141205.53      41.330809      41.330809      82.661617          16000 
     76000   2753.9393      594373.78      427.76053      594776.46      594454.38      593890.5      -5282.5616      1776.2447      4123.1312      5695.2376      5904.9705      11600.208      141445.25      41.354184      41.354184      82.708368          16000 
     77000   2788.7745      603188.04      434.24892      603658.9       604934.92      600970.31     -3384.5286      1767.1371     -2015.1666      5767.2778      6037.7788      11805.057      141113.67      41.321844      41.321844      82.643689          16000 
     78000   2781.8275      600956.17      440.74162      601557.83      600146.72      601163.96     -2514.5917     -1769.4868     -1386.4871      5752.9112      5990.3518      11743.263      141231.94      41.333385      41.333385      82.66677           16000 
     79000   2799.5233      598591.15      447.23324      599556.2       597456.04      598761.22     -726.20833      3047.9937     -1605.2943      5789.5067      5861.9065      11651.413      141294.61      41.339498      41.339498      82.678995          16000 
     80000   2800.134       601634.84      453.72257      600945.94      603086.25      600872.34     -2238.4446      2994.6376      172.94443      5790.7697      5962.2037      11752.973      141232.57      41.333446      41.333446      82.666893          16000 
     81000   2778.1312      597452.54      460.21044      597013.61      598865.87      596478.15     -1567.6245      2277.1339      114.4349       5745.2672      5925.3484      11670.616      141335.96      41.343531      41.343531      82.687062          16000 
     82000   2797.1815      599968.11      466.69876      598660.74      600124.89      601118.7      -1076.8917      1205.0155     -249.17632      5784.6639      5939.0789      11723.743      141275.42      41.337626      41.337626      82.675252          16000 
     83000   2803.5964      603022.66      473.19181      604266.56      602717.56      602083.85     -909.05618      2317.8072      1404.9966      5797.9301      5975.1201      11773.05       141150.64      41.325452      41.325452      82.650904          16000 
     84000   2796.4581      590204.53      479.68851      591304.29      588988.59      590320.72     -560.557       -1783.8936      2825.5833      5783.1677      5829.0991      11612.267      141626.71      41.371861      41.371861      82.743722          16000 
     85000   2839.9018      603082.86      486.1798       601733.38      601563.82      605951.38      378.44675     -1322.2743     -62.496949      5873.0108      5956.1802      11829.191      141198.67      41.330139      41.330139      82.660279          16000 
     86000   2786.7292      600112.4       492.67064      601289.72      598697.17      600350.32      650.15569      3514.1466     -1729.5094      5763.0481      5921.392       11684.44       141290.58      41.339105      41.339105      82.67821           16000 
     87000   2803.7578      598114.69      499.16091      598215.28      599562.76      596566.04     -1043.2065      3299.9041     -2044.0382      5798.2637      5940.536       11738.8        141409.61      41.350711      41.350711      82.701421          16000 
     88000   2790.8204      602150.2       505.65177      600833.59      603004.36      602612.64     -2348.3071     -1467.0407      1122.2714      5771.5089      5941.8641      11713.373      141199.54      41.330225      41.330225      82.660449          16000 
     89000   2788.6364      594994.12      512.14404      594659.66      594068.35      596254.36      1292.8        -949.47748     -330.22456      5766.9923      5866.9776      11633.97       141405.54      41.350313      41.350313      82.700627          16000 
     90000   2791.8847      600579.27      518.63631      600960.69      600198.8       600578.31     -1.1092421      379.06968      780.29476      5773.7098      5953.8369      11727.547      141244.99      41.334658      41.334658      82.669317          16000 
     91000   2818.3626      604838.96      525.1251       603255.3       603824.48      607437.09      2245.9763      2981.5421     -1965.6152      5828.4669      5995.1176      11823.585      141121.2       41.322579      41.322579      82.645158          16000 
     92000   2791.5652      597231.37      531.61532      595905.93      598288.39      597499.78      746.53459     -2592.3085     -1561.0116      5773.049       5880.8066      11653.856      141387.31      41.348537      41.348537      82.697074          16000 
     93000   2819.2718      600042.35      538.10685      602166.73      598939.32      599021         1467.1321      2805.0301      1169.2522      5830.3473      5978.681       11809.028      141253.08      41.335447      41.335447      82.670895          16000 
     94000   2791.3329      601628.39      544.59676      601370.11      602578.78      600936.3      -2232.5133      1585.7624      3695.6938      5772.5688      5966.8742      11739.443      141210.9       41.331332      41.331332      82.662665          16000 
     95000   2847.7465      595592.27      551.08442      595881.79      596119.87      594775.15     -606.75536     -932.63012     -1839.6547      5889.234       5847.9954      11737.229      141449.09      41.354559      41.354559      82.709117          16000 
     96000   2817.1677      602043.89      557.57641      602201.06      602039.36      601891.24     -2391.0839     -207.38873     -2419.2877      5825.996       5983.3594      11809.355      141236.7       41.33385       41.33385       82.6677            16000 
     97000   2788.8484      602680.18      564.07018      604021.03      601957.9       602061.62     -1191.0076      1334.9044     -1510.0757      5767.4306      5976.0002      11743.431      141201.67      41.330432      41.330432      82.660864          16000 
     98000   2808.618       593818.95      570.56752      593989.88      593607.12      593859.85      513.71068     -1533.4591      1736.7065      5808.3149      5827.3689      11635.684      141523.19      41.361778      41.361778      82.723557          16000 
     99000   2806.2971      602710.89      577.0658       602549.04      601667.79      603915.83     -84.716592     -669.84559     -2252.6984      5803.5151      5992.3287      11795.844      141202.78      41.33054       41.33054       82.661081          16000 
    100000   2784.6355      599640.39      583.57053      599878.86      598382.28      600660.04      3585.4038      455.09407     -3019.2143      5758.7184      5934.0709      11692.789      141312.99      41.34129       41.34129       82.68258           16000 
    101000   2777.6926      597918.32      590.06786      597960.72      597388.53      598405.71      4878.5219     -2765.0439     -2629.6463      5744.36        5780.839       11525.199      141280.87      41.338158      41.338158      82.676316          16000 
    102000   2810.5202      602923.33      596.56555      602506         603279.46      602984.53      352.9199      -2038.8388      893.15319      5812.2487      5948.075       11760.324      141196.22      41.3299        41.3299        82.6598            16000 
    103000   2798.366       596514.76      603.06803      596996.03      594880.59      597667.67      646.33912     -2351.9058     -2715.0314      5787.1134      5804.5237      11591.637      141400.59      41.349831      41.349831      82.699662          16000 
    104000   2783.3429      605230.33      609.56623      605130.94      605895.15      604664.89     -1594.708       2922.0878     -2511.7881      5756.0451      6066.4549      11822.5        141108.91      41.32138       41.32138       82.64276           16000 
    105000   2775.6659      600977.13      616.05811      600581.35      600440.29      601909.74      775.39647     -1614.126      -190.62407      5740.1689      5936.7005      11676.869      141252.79      41.33542       41.33542       82.670839          16000 
    106000   2808.5471      595670.02      622.55123      595215.89      597060.65      594733.52      344.83792      1535.116       1806.4135      5808.1683      5922.3379      11730.506      141425.46      41.352256      41.352256      82.704512          16000 
    107000   2794.6014      603202.9       629.04303      602053.97      603865.4       603689.33      1331.4619     -2364.4429     -9.3936575      5779.3282      5955.5315      11734.86       141146.43      41.325042      41.325042      82.650083          16000 
    108000   2795.9402      597851.25      635.5304       598778.32      598015.84      596759.6       2388.7597      498.14541     -2920.6657      5782.0967      5953.4264      11735.523      141322.91      41.342257      41.342257      82.684515          16000 
    109000   2769.656       599479.47      642.0139       598927.28      599199.94      600311.19      62.449806      201.88711     -1449.855       5727.7402      5861.1445      11588.885      141292.01      41.339244      41.339244      82.678488          16000 
    110000   2800.773       605763.71      648.49834      605646.97      605518.8       606125.35      2110.6386     -114.61618      3906.3917      5792.0912      6031.4673      11823.558      141067.76      41.317363      41.317363      82.634726          16000 
    111000   2795.8457      596612.65      654.98106      596670.43      596182.68      596984.84      1713.4361      42.294447     -796.54896      5781.9013      5858.0698      11639.971      141418.94      41.35162       41.35162       82.70324           16000 
    112000   2817.626       601847.22      661.46432      602142.8       601997.99      601400.86      2714.1794      597.70827      1582.8759      5826.9437      6014.5696      11841.513      141258.79      41.336005      41.336005      82.67201           16000 
    113000   2786.4091      600944.5       667.95005      600302.87      600965.37      601565.25     -2019.1959      294.69185      2474.9942      5762.386       5967.4378      11729.824      141240.58      41.334228      41.334228      82.668456          16000 
    114000   2784.2174      599481.62      674.43543      599435.59      599327.72      599681.55      1101.1786     -288.05944      772.71918      5757.8537      5874.2565      11632.11       141306.89      41.340696      41.340696      82.681392          16000 
    115000   2799.6997      603302.78      680.91703      603154.2       603227.38      603526.75      1064.3014     -814.56632      2365.6586      5789.8716      5978.1962      11768.068      141176.41      41.327967      41.327967      82.655935          16000 
    116000   2813.6508      595838.7       687.39552      595081.16      597243.36      595191.57      2721.8716      1051.7095     -1061.0918      5818.7229      5832.7997      11651.523      141466.54      41.356259      41.356259      82.712518          16000 
    117000   2760.6668      597973.26      693.87531      596827.38      598053.23      599039.18     -302.79577      811.70049      2009.3879      5709.1503      5940.8554      11650.006      141355         41.345387      41.345387      82.690773          16000 
    118000   2790.1629      603216.11      700.35303      602226.31      605213.68      602208.33      656.52557     -2487.0388     -667.04302      5770.1492      5994.0177      11764.167      141176.87      41.328012      41.328012      82.656025          16000 
    119000   2791.1847      599518.99      706.83158      600278.56      599384.28      598894.14      1405.0294     -924.94444      1629.6165      5772.2623      5873.1621      11645.424      141284.06      41.338469      41.338469      82.676938          16000 
    120000   2823.0412      600056.82      713.31053      601782.44      600627.84      597760.18      2501.9298      4041.2897      3294.1318      5838.1425      5922.7164      11760.859      141306.37      41.340645      41.340645      82.68129           16000 
    121000   2792.1122      602370.1       719.79314      603274.61      602652.76      601182.92     -911.72081      1490.7061      1109.166       5774.1804      5971.5862      11745.767      141188.38      41.329136      41.329136      82.658271          16000 
    122000   2800.3926      593682.88      726.27125      592858.55      592829.32      595360.78      2415.6245     -692.46148      407.63161      5791.3045      5898.8857      11690.19       141503.82      41.359892      41.359892      82.719784          16000 
    123000   2786.2084      607160.96      732.75726      606412.49      607853.49      607216.91     -984.19082     -288.86732     -1034.7276      5761.9711      6012.2558      11774.227      141031.82      41.313853      41.313853      82.627707          16000 
    124000   2791.4037      599315.06      739.24358      600044.03      599178.72      598722.45     -470.97064     -1563.6708      1884.7794      5772.7151      5933.7413      11706.456      141296.61      41.339693      41.339693      82.679386          16000 
    125000   2780.8071      600116.2       745.72928      599525.59      600992.64      599830.38      3392.3671     -843.46363     -2396.6254      5750.8009      5935.2258      11686.027      141256.68      41.335799      41.335799      82.671598          16000 
    126000   2829.6852      600693.71      752.21575      600372.45      600804.45      600904.24      738.96248     -100.00762     -1184.6813      5851.8825      5957.2191      11809.102      141260.42      41.336163      41.336163      82.672326          16000 
    127000   2792.7782      600753.43      758.70524      601087.86      599788.28      601384.16      2685.9354     -348.78014      1819.2366      5775.5577      5934.727       11710.285      141230.38      41.333233      41.333233      82.666467          16000 
    128000   2817.2713      598804.76      765.19127      598361.71      598526.79      599525.79     -1358.4296      1210.5385     -1128.8941      5826.2101      5964.4095      11790.62       141362.8       41.346147      41.346147      82.692295          16000 
    129000   2780.8592      604248.08      771.68649      603518.8       603562.51      605662.93      1803.9135     -425.92669      1304.1055      5750.9087      5957.9952      11708.904      141164.17      41.326773      41.326773      82.653546          16000 
    130000   2795.8353      599830.6       778.1793       599053.73      599678.33      600759.74     -3609.8446     -678.17499      3148.754       5781.8799      5987.9892      11769.869      141344.71      41.344384      41.344384      82.688767          16000 
    131000   2798.3571      595220.11      784.66966      594352.07      596600.15      594708.11      1728.4064     -2172.6125      5852.9652      5787.0951      5816.8153      11603.91       141418.13      41.351541      41.351541      82.703081          16000 
    132000   2797.1464      603019.44      791.16424      603267.63      603403.4       602387.27     -1687.8659     -108.28067      622.61576      5784.5912      5928.4341      11713.025      141151.28      41.325515      41.325515      82.65103           16000 
    133000   2804.6762      599914.11      797.66096      599741.47      599843.26      600157.6       3385.4049      3496.0495     -2397.1152      5800.1632      5942.6923      11742.855      141269.28      41.337028      41.337028      82.674056          16000 
    134000   2801.3257      598920.4       804.15646      597956.17      599120.77      599684.26      2123.6471      1962.4041      2904.3613      5793.2342      5900.9         11694.134      141328.12      41.342766      41.342766      82.685532          16000 
    135000   2805.1318      603318.26      810.65374      602852.33      604669.83      602432.62      1541.4007      1036.9375      4558.0438      5801.1054      6002.8948      11804          141158         41.326171      41.326171      82.652342          16000 
    136000   2785.7307      597541.81      817.15005      597502.6       597966.78      597156.06     -3156.3169     -1396.6315      902.62578      5760.9832      5872.8755      11633.859      141350.71      41.344968      41.344968      82.689936          16000 
    137000   2806.813       599858.05      823.64875      599950.72      598934.28      600689.15      188.74446      2179.1126     -260.88843      5804.582       5991.298       11795.88       141277.13      41.337793      41.337793      82.675586          16000 
    138000   2803.4114      605477.34      830.1442       605137.91      604675.95      606618.16      1826.2681     -2521.5303     -2951.9217      5797.5474      5986.6851      11784.233      141090.9       41.319622      41.319622      82.639243          16000 
    139000   2805.7566      595831.7       836.64401      595863.11      594551.02      597080.97     -711.79211      35.385296     -268.94875      5802.3975      5816.4207      11618.818      141394.1       41.349199      41.349199      82.698398          16000 
    140000   2795.7036      601445.38      843.14789      601881.23      601073.25      601381.68     -2149.6361     -4659.5135     -288.29667      5781.6075      5988.8403      11770.448      141225.54      41.332761      41.332761      82.665521          16000 
    141000   2777.847       601219.86      849.6506       601047.87      600957.11      601654.6      -2113.7992     -2224.8561      1192.108       5744.6795      5957.497       11702.177      141226.24      41.332829      41.332829      82.665659          16000 
    142000   2797.0244      596815.35      856.15217      597422.47      596241.5       596782.09      3000.6791     -437.90006     -2123.2534      5784.339       5884.1337      11668.473      141352.63      41.345156      41.345156      82.690311          16000 
    143000   2808.0658      605369.74      862.65264      605268.18      605806.56      605034.48     -187.86962      162.35922     -3853.1474      5807.1729      6008.3344      11815.507      141119.42      41.322405      41.322405      82.644811          16000 
    144000   2810.4095      595127.28      869.15377      594439.42      594837.96      596104.45      1141.1522     -462.81529      502.80946      5812.0197      5805.9998      11618.02       141421.98      41.351916      41.351916      82.703833          16000 
    145000   2790.0117      600703.31      875.64764      601142.26      599770.19      601197.47      243.90348      1757.7091      226.27787      5769.8365      5946.3658      11716.202      141245.81      41.334738      41.334738      82.669477          16000 
    146000   2789.5187      602426.04      882.14944      601996.13      603186.81      602095.19     -1697.9149     -2527.6775      1158.0817      5768.8169      5978.1839      11747.001      141173.08      41.327642      41.327642      82.655284          16000 
    147000   2812.1608      598830         888.65315      599106.44      598544.26      598839.29      760.43505      1312.9857      1349.0439      5815.6414      5969.6092      11785.251      141365.23      41.346384      41.346384      82.692769          16000 
    148000   2811.9765      601564.37      895.15345      601311.09      602509.23      600872.78     -1160.6347      384.94754      2814.5031      5815.2604      5943.4633      11758.724      141258.47      41.335974      41.335974      82.671947          16000 
    149000   2793.0559      599364.3       901.65331      598831.19      598709.26      600552.45      1546.8705     -474.67662     -292.42449      5776.132       5913.6563      11689.788      141273.36      41.337425      41.337425      82.67485           16000 
    150000   2802.1055      594144.67      908.15489      594697.36      593584.75      594151.91     -26.15318      -2127.8418     -950.40663      5794.8469      5862.7813      11657.628      141453.21      41.35496       41.35496       82.70992           16000 
    151000   2818.3999      608044.1       914.6505       606440.65      607971.15      609720.5      -545.56309      1660.1386      2335.348       5828.5442      6053.5329      11882.077      141023.68      41.313058      41.313058      82.626117          16000 
    152000   2803.5443      599367.96      921.14629      598870.09      598113.54      601120.26      2041.2199      1460.5735      722.32678      5797.8223      5893.8976      11691.72       141312.95      41.341286      41.341286      82.682572          16000 
    153000   2839.4085      599907.29      927.644        598721.3       600055         600945.58      12.495315      1140.1278      1393.0282      5871.9907      5950.0248      11822.016      141317.89      41.341768      41.341768      82.683536          16000 
    154000   2805.5798      602683.14      934.1467       603261.36      601623.35      603164.72     -1685.2906      530.3165       732.11742      5802.0318      5928.3548      11730.387      141175.09      41.327838      41.327838      82.655676          16000 
    155000   2795.7436      596295.43      940.65911      597144.2       597065.27      594676.81      2170.0594      1750.5123      1427.0258      5781.6901      5805.1171      11586.807      141366.88      41.346545      41.346545      82.69309           16000 
    156000   2819.9468      604815.06      947.15881      605387.24      603719.32      605338.63     -877.74246     -1289.1214     -528.15553      5831.7432      5973.8148      11805.558      141093.7       41.319895      41.319895      82.639791          16000 
    157000   2809.986       598357.28      953.65457      597030.92      596144.77      601896.15     -1038.7853     -2562.9282      103.41788      5811.144       5914.9023      11726.046      141341.18      41.344039      41.344039      82.688079          16000 
    158000   2787.3607      596939.02      960.15473      596773.64      597393.55      596649.88     -3665.3774      1534.6532      906.23664      5764.354       5889.3962      11653.75       141366.61      41.346519      41.346519      82.693037          16000 
    159000   2805.4106      602953.74      966.64934      603654.97      603639.93      601566.33     -1483.4889     -889.84766     -3103.9596      5801.6818      5963.271       11764.953      141200.8       41.330348      41.330348      82.660695          16000 
    160000   2785.8732      598077.36      973.14807      597870.29      598523.64      597838.15     -513.31546      934.983       -4586.8584      5761.2779      5880.7862      11642.064      141308.93      41.340894      41.340894      82.681788          16000 
    161000   2807.4943      597509.38      979.64758      597230.95      597861.87      597435.33      1209.6958     -4487.9723      1815.6735      5805.991       5941.1471      11747.138      141399.56      41.349731      41.349731      82.699462          16000 
    162000   2799.0387      605417.7       986.14648      605321.1       605477.91      605454.09      3179.9085     -3312.8976      542.69383      5788.5045      5980.6703      11769.175      141098.29      41.320343      41.320343      82.640687          16000 
    163000   2755.7822      596437.4       992.64408      596982.86      597305.8       595023.56     -1095.4238      4179.581       4557.3469      5699.0487      5887.3976      11586.446      141337.39      41.34367       41.34367       82.687339          16000 
    164000   2810.7799      596971.81      999.14535      597324.67      596987.08      596603.69     -3433.8856      5396.0401     -237.43378      5812.7857      5851.5345      11664.32       141404.53      41.350216      41.350216      82.700431          16000 
    165000   2797.0544      603089.34      1005.6445      602754.98      602231.28      604281.77      980.79954      273.05725     -594.56943      5784.401       5965.1234      11749.524      141156.65      41.326039      41.326039      82.652078          16000 
    166000   2784.9097      597917.44      1012.1405      597771.76      597728.16      598252.39      1668.4142     -1247.9378      1620.4362      5759.2853      5896.9645      11656.25       141338.03      41.343732      41.343732      82.687465          16000 
    167000   2803.5531      599308.13      1018.6312      599462.75      600516.46      597945.19     -99.443339     -2889.4574      681.90192      5797.8405      5923.4546      11721.295      141286.7       41.338727      41.338727      82.677453          16000 
    168000   2848.6467      600760.17      1025.1279      601887.89      601742.46      598650.16     -879.16558      564.99825     -2737.1887      5891.0955      5947.8977      11838.993      141254.41      41.335577      41.335577      82.671154          16000 
    169000   2787.564       597154.49      1031.625       597106.1       596925.98      597431.38      1689.8584     -3083.5723     -754.15725      5764.7744      5900.318       11665.092      141374.88      41.347325      41.347325      82.694651          16000 
    170000   2828.3809      603351.04      1038.1229      602408.42      603853.38      603791.31      2179.1779      1421.7397     -1003.6108      5849.1853      5976.7279      11825.913      141155.3       41.325908      41.325908      82.651815          16000 
    171000   2815.2417      603272.66      1044.6185      603373.1       602809.82      603635.05     -2323.082       512.42445     -2677.2313      5822.0129      5941.7329      11763.746      141132.48      41.32368       41.32368       82.64736           16000 
    172000   2775.6107      595908.31      1051.115       595432.16      595963.88      596328.88     -228.02926     -843.02529      997.08338      5740.0548      5945.2073      11685.262      141396.53      41.349436      41.349436      82.698871          16000 
    173000   2793.579       601456.42      1057.6128      601067.94      600785.53      602515.78     -641.9036      -1418.0913      1218.2295      5777.2137      5958.2816      11735.495      141209.83      41.331229      41.331229      82.662457          16000 
    174000   2786.4825      600202.18      1064.1088      598567.82      601076.88      600961.83     -1417.9348      4486.1825      2184.5268      5762.538       5928.9315      11691.469      141215.29      41.331761      41.331761      82.663522          16000 
    175000   2807.9313      599676.17      1070.6056      599212.67      600636.53      599179.3       1673.5011     -1154.5025     -2393.9255      5806.8948      5955.628       11762.523      141331.22      41.343069      41.343069      82.686137          16000 
    176000   2790.2538      604838.32      1077.1042      604936.98      603133.89      606444.08     -1753.8393     -2312.7531     -2200.8185      5770.3372      5935.7552      11706.092      141097.02      41.320219      41.320219      82.640438          16000 
    177000   2804.1459      591622.07      1083.6048      590696.32      591855.46      592314.44      3223.7947      1087.2876     -1749.0312      5799.0665      5884.6353      11683.702      141547.45      41.364142      41.364142      82.728284          16000 
    178000   2773.4389      602986.41      1090.1035      603384.42      601772.46      603802.35     -65.277648     -2299.3095     -1016.4015      5735.5634      5968.3522      11703.916      141153.23      41.325706      41.325706      82.651411          16000 
    179000   2804.3938      601587.27      1096.6005      602075.39      600912.02      601774.39     -1322.0457      1100.7202      2153.1822      5799.5791      5934.5753      11734.154      141222.68      41.332482      41.332482      82.664964          16000 
    180000   2790.1423      597309.99      1103.0956      597873.53      597909.69      596146.73     -1558.5357      1748.0234     -68.99623       5770.1064      5863.3361      11633.443      141336.51      41.343584      41.343584      82.687168          16000 
    181000   2776.5955      603616.24      1109.5903      602148.11      603890.02      604810.6      -580.14635     -888.34102     -1321.9799      5742.0913      5996.3697      11738.461      141158.77      41.326246      41.326246      82.652493          16000 
    182000   2784.3142      600028.18      1116.0837      599522.5       599904.36      600657.66      120.32763     -2035.171       3685.1725      5758.0538      5928.0987      11686.152      141303.58      41.340373      41.340373      82.680747          16000 
    183000   2843.9085      599460.52      1122.5808      599652.93      600261.29      598467.34     -321.35854     -806.89309      2293.3563      5881.2969      5941.1173      11822.414      141336.04      41.343538      41.343538      82.687077          16000 
    184000   2801.1629      606116.54      1129.0741      606838.55      604939.29      606571.78      1992.1158     -321.87661      1507.034       5792.8975      5970.2377      11763.135      141096.56      41.320174      41.320174      82.640348          16000 
    185000   2805.2165      596221.08      1135.5674      595768.78      596148.69      596745.78      65.021867     -1586.9431     -955.04502      5801.2805      5922.8669      11724.147      141470.81      41.356675      41.356675      82.713349          16000 
    186000   2797.5929      602135.32      1142.0597      602887.49      601438.93      602079.55     -3085.3593     -1062.0916     -499.12125      5785.5147      5945.9233      11731.438      141250.39      41.335185      41.335185      82.67037           16000 
    187000   2801.4795      602660.87      1148.5506      601522.15      603048.22      603412.24     -715.98729      1452.5442     -149.68284      5793.5522      6010.1362      11803.688      141240.03      41.334174      41.334174      82.668348          16000 
    188000   2804.1211      596236.21      1155.0449      594968.21      596940.98      596799.44     -958.64493      357.3732       2277.8297      5799.0152      5856.7454      11655.761      141440.62      41.353733      41.353733      82.707466          16000 
    189000   2804.8388      602533.77      1161.5386      603847.63      601827.39      601926.28     -1260.7649     -4152.3274      1943.5536      5800.4993      5941.6203      11742.12       141154.59      41.325838      41.325838      82.651676          16000 
    190000   2783.5604      602232.8       1168.0286      602192.71      601983.25      602522.45      3553.3988     -400.51958      2069.4154      5756.4949      6000.3275      11756.822      141212.05      41.331445      41.331445      82.662891          16000 
    191000   2805.7631      596113.03      1174.5196      596614.77      595721.55      596002.78     -283.62362     -1118.5084      375.60407      5802.4109      5809.2982      11611.709      141392.03      41.348997      41.348997      82.697995          16000 
    192000   2837.41        602962.92      1181.0125      603176.3       602103.54      603608.92     -2908.0233     -2539.1106      1506.0717      5867.8576      5956.3348      11824.192      141178.22      41.328144      41.328144      82.656288          16000 
    193000   2781.6735      602033.94      1187.5082      601779.92      602871.57      601450.32     -1247.681       1095.8063      513.66861      5752.5927      5934.1865      11686.779      141174.38      41.327769      41.327769      82.655538          16000 
    194000   2802.8493      594212.75      1194.0077      592782.61      595177.1       594678.56      2286.9435     -282.74235      1547.0387      5796.3851      5866.5132      11662.898      141485.78      41.358133      41.358133      82.716267          16000 
    195000   2778.0422      602798.89      1200.5031      601944.85      602467.81      603984.02     -1686.7171      110.83371     -1587.6834      5745.083       5952.5184      11697.601      141120.93      41.322553      41.322553      82.645106          16000 
    196000   2807.8127      598471.22      1206.9988      597539.11      599353.21      598521.34      5663.8526      2658.6698     -1796.2375      5806.6496      5914.325       11720.975      141338.79      41.343807      41.343807      82.687613          16000 
    197000   2810.2419      598753.69      1213.4966      598912.67      599021.1       598327.3       6364.5544     -2872.5418     -785.47745      5811.6731      5906.3381      11718.011      141349.35      41.344836      41.344836      82.689673          16000 
    198000   2778.2894      605273.09      1219.9931      605202.52      605257.48      605359.27      1143.3806      4351.8682     -1732.1126      5745.5943      5962.4882      11708.082      141098.65      41.320378      41.320378      82.640756          16000 
    199000   2815.0646      593951.86      1226.4904      594514.71      593279.49      594061.37     -2599.1742      1690.5638     -392.75068      5821.6467      5835.1941      11656.841      141489.91      41.358536      41.358536      82.717072          16000 
    200000   2810.7956      599942.87      1232.9974      598982.01      601537.22      599309.38     -787.47627      950.48646     -796.8838       5812.8182      5890.6648      11703.483      141281.42      41.338212      41.338212      82.676424          16000 
    201000   2789.5241      603729.89      1239.4969      603879.81      603872.74      603437.13     -541.13369      1121.0016     -4135.8059      5768.8281      5977.7687      11746.597      141171.6       41.327498      41.327498      82.654996          16000 
    202000   2809.4254      599235.44      1245.9939      598973.32      599506.61      599226.38      417.99928      536.86914     -4013.2959      5809.9846      5853.4105      11663.395      141301.64      41.340183      41.340183      82.680367          16000 
    203000   2826.4874      599823.73      1252.4916      600061.95      600180.99      599228.25     -1643.7734     -2738.9489     -2154.4404      5845.2695      5875.2388      11720.508      141313.5       41.341341      41.341341      82.682681          16000 
    204000   2821.8048      605422.97      1258.9853      605412.28      605051.45      605805.18     -2189.5571     -386.11566      2404.4022      5835.5856      5929.339       11764.925      141151.12      41.3255        41.3255        82.651             16000 
    205000   2799.5098      592954.91      1265.482       593594.4       593181.79      592088.52      4478.4439      1113.1509     -3476.2722      5789.4789      5882.5445      11672.023      141536.42      41.363067      41.363067      82.726134          16000 
    206000   2778.6803      602704.28      1271.9792      602532.29      602943.18      602637.36      2200.0961     -236.07455      699.34557      5746.4027      5963.2017      11709.604      141204.98      41.330755      41.330755      82.66151           16000 
    207000   2816.1085      600169.03      1278.4774      600512.37      601396.88      598597.84      2132.3423      1374.641      -3549.1608      5823.8054      5970.0103      11793.816      141285.82      41.338641      41.338641      82.677281          16000 
    208000   2808.5242      597685.21      1284.9765      597952.62      597047.45      598055.57      1745.8112     -2632.495       1368.0379      5808.1209      5894.6614      11702.782      141384.25      41.348239      41.348239      82.696477          16000 
    209000   2801.8445      602554.06      1291.4756      603809.04      602200.53      601652.61      1634.4958     -1406.6069      2986.0793      5794.3071      6016.3066      11810.614      141239.35      41.334108      41.334108      82.668216          16000 
    210000   2798.4029      597814.82      1297.9722      597299.29      597972.4       598172.79     -1922.867      -2107.7699      1123.3126      5787.1897      5928.7105      11715.9        141331.72      41.343117      41.343117      82.686234          16000 
    211000   2796.8601      595820.21      1304.4698      596470.08      595241.76      595748.79      631.50035     -1249.9         3601.6443      5783.9991      5901.4171      11685.416      141439.07      41.353582      41.353582      82.707164          16000 
    212000   2813.6839      606475.47      1310.9656      605553.02      608365.78      605507.6       1788.8865     -1701.1641      2973.4509      5818.7913      6054.4857      11873.277      141018.68      41.312571      41.312571      82.625142          16000 
    213000   2771.7836      596601.17      1317.4607      597061.97      596806.34      595935.2       3594.9616      78.578168      271.43278      5732.14        5960.5911      11692.731      141386.88      41.348494      41.348494      82.696989          16000 
    214000   2801.2671      600110.04      1323.9587      600561.91      598645.12      601123.08     -501.83223      2178.1797      183.63837      5793.113       5931.803       11724.916      141253.55      41.335493      41.335493      82.670986          16000 
    215000   2811.8753      601386.13      1330.4551      600844.83      600969.43      602344.12     -2288.5213      2399.7362     -682.82493      5815.0511      5947.4193      11762.47       141227.26      41.332928      41.332928      82.665856          16000 
    216000   2804.5818      596235.64      1336.9479      595729.42      596367.01      596610.5      -1687.1355      2927.8717     -3726.8423      5799.9678      5888.7611      11688.729      141418.98      41.351624      41.351624      82.703247          16000 
    217000   2774.086       604198.86      1343.4469      604294.9       603621.02      604680.67      1166.4732     -3228.2964     -630.01155      5736.9016      5940.6554      11677.557      141121.48      41.322607      41.322607      82.645213          16000 
    218000   2785.8299      599949.48      1349.9441      600539.15      600654.06      598655.23     -2986.3384     -5080.93        1565.3011      5761.1884      5956.5615      11717.75       141274.73      41.33756       41.33756       82.675119          16000 
    219000   2789.3219      598048.05      1356.4404      599442.54      596886.46      597815.16      406.13084     -3747.5233      1742.9271      5768.4099      5884.7901      11653.2        141312.66      41.341258      41.341258      82.682517          16000 
    220000   2815.2991      600882.26      1362.9443      600487.18      601037.68      601121.93     -3061.3361      1036.4386     -897.57879      5822.1317      5994.5722      11816.704      141265.2       41.33663       41.33663       82.673259          16000 
    221000   2795.6682      600799.64      1369.445       601683.8       599723.02      600992.12     -3386.7419      1659.0152     -1765.798       5781.5342      5880.2724      11661.807      141251.05      41.33525       41.33525       82.670499          16000 
    222000   2777.4907      602215.58      1375.945       601752.7       602526.46      602367.57     -380.24427     -519.79767      1575.7776      5743.9425      5953.088       11697.03       141220.49      41.332268      41.332268      82.664537          16000 
    223000   2787.0404      598738.39      1382.4444      596717.48      600143.83      599353.86     -4826.8354      1755.4164     -2771.2804      5763.6917      5901.5342      11665.226      141300.98      41.34012       41.34012       82.680239          16000 
    224000   2818.8868      597952.57      1388.9442      599198.26      598030.9       596628.55     -257.14283      2488.5056     -1190.4799      5829.551       5870.4444      11699.995      141341.2       41.344041      41.344041      82.688082          16000 
    225000   2790.2291      603700.17      1395.4436      603534.54      603344.48      604221.48     -2046.7376      1093.2144     -1509.4586      5770.286       5990.9676      11761.254      141123.49      41.322803      41.322803      82.645605          16000 
    226000   2808.9613      592510.37      1401.9488      591617.02      594240.03      591674.04     -3320.7395      2402.598      -1183.5268      5809.0248      5872.5766      11681.601      141511.97      41.360685      41.360685      82.721371          16000 
    227000   2830.3557      601397.36      1408.4516      599702.38      602616.14      601873.55      772.41521      1702.3537      2716.3644      5853.2691      5937.5024      11790.771      141245.63      41.334721      41.334721      82.669442          16000 
    228000   2805.3713      601566.83      1414.9528      602111.04      601255.26      601334.19      517.80761     -639.29552      274.97549      5801.6006      5983.5247      11785.125      141199.52      41.330223      41.330223      82.660445          16000 
    229000   2812.4934      597655.12      1421.455       598435.36      596694.62      597835.36      1529.8796      3280.3892     -1487.0379      5816.3294      5884.3446      11700.674      141358.51      41.345729      41.345729      82.691458          16000 
    230000   2782.8258      599549.59      1427.9565      599205.28      600784.59      598658.91      1603.9894      1592.4256     -196.31549      5754.9758      5945.3617      11700.337      141266.34      41.336741      41.336741      82.673481          16000 
    231000   2810.7411      603542.42      1434.4576      604583.6       602428.19      603615.46      1288.5382      5835.6744      147.96822      5812.7054      5942.4408      11755.146      141123.77      41.32283       41.32283       82.64566           16000 
    232000   2809.5562      591986.85      1440.9628      590293.46      592945.34      592721.74      1259.3011      4248.1564     -991.10899      5810.2552      5874.9449      11685.2        141590.42      41.368327      41.368327      82.736655          16000 
    233000   2811.0643      604684.39      1447.4635      605530.53      604703.14      603819.5      -2602.9081      196.16606     -3962.7487      5813.3739      5970.1139      11783.488      141090.46      41.319579      41.319579      82.639157          16000 
    234000   2816.9607      600590.73      1453.9644      600835.02      600360.15      600577.02     -719.24295     -2170.0081     -970.22373      5825.5679      5954.2331      11779.801      141279.79      41.338053      41.338053      82.676106          16000 
    235000   2801.4093      597943.93      1460.4656      597793.92      596927.07      599110.78     -48.193446     -3888.418       442.22684      5793.4071      5885.0499      11678.457      141335.63      41.343498      41.343498      82.686996          16000 
    236000   2830.6335      599766.34      1466.9663      599685.18      598632.67      600981.18     -553.6495       1900.436      -2339.856       5853.8436      5923.8711      11777.715      141245.06      41.334665      41.334665      82.669331          16000 
    237000   2774.0928      598358.07      1473.4658      598546.26      597972.57      598555.37      26.324993     -559.79334      3143.3444      5736.9156      5910.0759      11646.992      141301.01      41.340122      41.340122      82.680244          16000 
    238000   2844.963       598661.58      1479.9599      597511.32      599965.5       598507.92      3226.247      -2123.5361     -721.05301      5883.4775      5906.6918      11790.169      141385.26      41.348337      41.348337      82.696674          16000 
    239000   2790.1622      605209.55      1486.4617      606754.07      602972.21      605902.38     -1437.1479     -679.045       -2256.0981      5770.1476      5986.001       11756.149      141103.22      41.320824      41.320824      82.641648          16000 
    240000   2832.1499      598450.83      1492.9602      597295.4       600102.88      597954.22     -443.94466      210.83253     -1403.9062      5856.9796      5925.9242      11782.904      141390.16      41.348815      41.348815      82.69763           16000 
    241000   2791.5977      597733.92      1499.4609      597425.45      598206.51      597569.79      750.7541       2885.8235      1281.4804      5773.1163      5881.8944      11655.011      141359.07      41.345783      41.345783      82.691567          16000 
    242000   2808.8006      602418.01      1505.9611      601798.36      603249.73      602205.93     -24.081929      3589.4052      1574.012       5808.6925      5996.5747      11805.267      141232.58      41.333447      41.333447      82.666895          16000 
    243000   2804.4377      601447.67      1512.4618      600670         601560.69      602112.33      2652.9064      3285.7356      1865.1288      5799.6699      5870.2352      11669.905      141276.17      41.3377        41.3377        82.6754            16000 
    244000   2807.2538      597938.94      1518.9596      597533.95      598276.77      598006.08      3443.419      -2048.3143      1269.7143      5805.4937      5956.6704      11762.164      141360.46      41.345919      41.345919      82.691839          16000 
    245000   2812.7701      602136.77      1525.461       602506.18      603070.66      600833.47     -102.28545      1630.1166      1425.4098      5816.9015      5877.0612      11693.963      141208.28      41.331077      41.331077      82.662155          16000 
    246000   2801.0702      599488.38      1531.9615      601207.91      597550.23      599706.99     -924.90006      2918.9822      981.06134      5792.7058      5915.9345      11708.64       141303.51      41.340366      41.340366      82.680733          16000 
    247000   2784.3268      598567.7       1538.4619      597896.46      599956.55      597850.08      727.18937      80.373836      3258.8376      5758.0799      5949.8292      11707.909      141286.42      41.338699      41.338699      82.677399          16000 
    248000   2815.3894      604724.72      1544.9656      605147.01      604430.24      604596.9       1610.8266     -959.94152      209.98144      5822.3183      5971.1462      11793.465      141104.81      41.32098       41.32098       82.64196           16000 
    249000   2791.5437      596206.31      1551.4667      595208.74      597160.29      596249.9       958.34579      2732.6457     -1099.7287      5773.0048      5865.9774      11638.982      141432.87      41.352978      41.352978      82.705955          16000 
    250000   2830.8613      601493.07      1557.9689      602149.33      601423.16      600906.71     -120.06212     -460.48391      1406.3053      5854.3148      5945.7994      11800.114      141269.63      41.337062      41.337062      82.674124          16000 
    251000   2787.7634      601091.31      1564.4698      601596.61      600489.6       601187.73     -340.39868      763.14915      2800.3401      5765.1869      5946.5963      11711.783      141208.71      41.331119      41.331119      82.662238          16000 
    252000   2796.1407      597596.28      1570.9688      598223.28      597926.35      596639.21      3381.0294     -333.38152     -3960.0832      5782.5114      5902.897       11685.408      141349.78      41.344878      41.344878      82.689756          16000 
    253000   2774.0312      598995.79      1577.468       599004.22      598739.7       599243.44     -1114.1554      2327.1472     -1428.9363      5736.7883      5865.427       11602.215      141271.91      41.337284      41.337284      82.674568          16000 
    254000   2807.1646      602806.19      1583.9686      603682.57      602219.05      602516.95     -952.15319      2391.0658      5575.993       5805.3092      5935.6117      11740.921      141231.55      41.333347      41.333347      82.666695          16000 
    255000   2825.2832      598876.74      1590.4682      599459.07      597747.24      599423.92     -1956.72        3697.8873      871.83105      5842.779       5802.3453      11645.124      141319.66      41.341941      41.341941      82.683882          16000 
    256000   2801.2133      598732.91      1596.9699      598056.18      600352.59      597789.95     -4810.3604     -530.22372     -2014.2886      5793.0017      5930.0096      11723.011      141382.67      41.348084      41.348084      82.696169          16000 
    257000   2806.4854      606272.43      1603.4694      606280.55      606169.87      606366.86     -1513.5806     -1073.0538     -914.46209      5803.9046      5929.5084      11733.413      141044.61      41.315102      41.315102      82.630204          16000 
    258000   2813.1142      595755.86      1609.9628      598037.11      595154.55      594075.93      1029.2766      1279.1129      1128.1935      5817.6131      5881.2094      11698.822      141480.61      41.35763       41.35763       82.71526           16000 
    259000   2779.6558      599914.87      1616.4595      599270.69      599468.65      601005.25      78.957727     -2108.7667      1067.8947      5748.4202      5898.1161      11646.536      141279.59      41.338033      41.338033      82.676067          16000 
    260000   2810.5618      601205.89      1622.9528      599360.62      602427.94      601829.11     -2875.7669      3248.2443      2113.5448      5812.3348      5937.9546      11750.289      141272.53      41.337345      41.337345      82.67469           16000 
    261000   2793.3907      598651.3       1629.4461      598032.98      597596.28      600324.65      435.29916     -1195.219       539.34172      5776.8243      5918.8018      11695.626      141294.44      41.339481      41.339481      82.678963          16000 
    262000   2764.0526      600923.35      1635.9434      599639.61      601962.02      601168.41     -78.590948      4602.4809      148.38833      5716.1521      5942.5097      11658.662      141254.23      41.335559      41.335559      82.671119          16000 
    263000   2800.0405      600480.27      1642.443       601394.39      600212.36      599834.04      334.72237     -4118.9124      229.7918       5790.5764      5951.8527      11742.429      141253.83      41.335521      41.335521      82.671042          16000 
    264000   2784.3704      599369.71      1648.9404      600394.16      599458.4       598256.58     -1462.1306     -2227.3468     -487.73094      5758.1701      5875.0232      11633.193      141295.82      41.339616      41.339616      82.679233          16000 
    265000   2833.0697      602348.33      1655.4411      601027.8       604487.81      601529.38     -200.60482      2448.4388      3238.8664      5858.8817      5906.3439      11765.226      141220.69      41.332288      41.332288      82.664575          16000 
    266000   2805.3157      598117.88      1661.9391      598356.83      598932.22      597064.6       1328.555      -1973.1945      2927.4989      5801.4855      5886.2388      11687.724      141341.13      41.344034      41.344034      82.688068          16000 
    267000   2781.3908      596519.63      1668.4389      598331.47      594903.57      596323.84     -1414.2483     -2377.3493     -1852.2711      5752.0081      5909.7961      11661.804      141364.41      41.346304      41.346304      82.692608          16000 
    268000   2793.726       606763.19      1674.9384      606183.13      607462.36      606644.07     -1923.7727     -1729.1583     -1018.5999      5777.5177      6128.9546      11906.472      141074.6       41.318031      41.318031      82.636061          16000 
    269000   2811.1207      596932.13      1681.4388      598357.2       596617.28      595821.91      1388.4572     -442.07743     -992.64098      5813.4905      5896.5649      11710.055      141414.75      41.351211      41.351211      82.702423          16000 
    270000   2805.5096      599662.67      1687.9393      599215.01      598995.7       600777.31      1763.2738      518.08033      1596.6025      5801.8867      5849.4396      11651.326      141270.29      41.337126      41.337126      82.674253          16000 
    271000   2790.0242      601310.18      1694.4394      601817.36      600757.71      601355.45     -577.49898     -1634.1381     -327.15739      5769.8623      5992.7077      11762.57       141268.05      41.336907      41.336907      82.673815          16000 
    272000   2793.1304      600114.72      1700.9392      600128.65      601011.14      599204.36      2202.6006      2760.5991     -46.135227      5776.286       5912.5608      11688.847      141287.62      41.338816      41.338816      82.677632          16000 
    273000   2814.7111      598986.79      1707.44        599938.5       598281.83      598740.02      826.3044       2191.0093     -3444.0622      5820.9156      5999.9885      11820.904      141290.27      41.339074      41.339074      82.678149          16000 
    274000   2804.6123      600487.44      1713.9404      600469.22      601226         599767.12     -690.66895      78.301366     -124.65011      5800.031       5892.8137      11692.845      141276.26      41.337708      41.337708      82.675416          16000 
    275000   2790.7973      597725.75      1720.4404      596350.61      599985.58      596841.07     -3319.5289      1734.5667      2660.4027      5771.4611      5929.1271      11700.588      141403.39      41.350104      41.350104      82.700209          16000 
    276000   2795.9573      604414.89      1726.9424      605610.16      604180.2       603454.31     -175.16864      1370.7987      4614.0259      5782.1321      5979.0347      11761.167      141084.86      41.319032      41.319032      82.638064          16000 
    277000   2841.2167      596338.91      1733.4435      595731.34      597073.62      596211.78     -2925.597       369.99551     -605.3303       5875.73        5902.5821      11778.312      141406.63      41.35042       41.35042       82.70084           16000 
    278000   2797.8593      600893.42      1739.9447      601161.56      601533.62      599985.07      1823.3361     -1485.2866     -439.78661      5786.0656      5906.5313      11692.597      141262.55      41.336371      41.336371      82.672741          16000 
    279000   2828.0512      601287.35      1746.446       601079.42      601278.08      601504.55     -570.93849     -884.32518     -2591.9578      5848.5035      5940.4626      11788.966      141263.54      41.336467      41.336467      82.672935          16000 
    280000   2772.4852      598132.15      1752.9494      597383.95      598658.97      598353.53     -2530.5704     -1819.6909     -1318.0149      5733.591       5909.7744      11643.365      141301.64      41.340184      41.340184      82.680367          16000 
    281000   2806.3265      596653.83      1759.4507      596640.28      595889.56      597431.66      1135.5809     -5659.0584     -1095.7588      5803.5759      5878.0943      11681.67       141362.2       41.346088      41.346088      82.692177          16000 
    282000   2794.5976      607072.76      1765.9511      606754.53      607462.12      607001.62      1452.3036      144.4011      -2098.7662      5779.3202      5979.3261      11758.646      141040.41      41.314692      41.314692      82.629384          16000 
    283000   2783.5587      600307.05      1772.4479      600504.72      599740.26      600676.16      1530.4495      68.30318       444.32442      5756.4915      5951.2022      11707.694      141248.39      41.33499       41.33499       82.66998           16000 
    284000   2822.9115      596244.11      1778.9482      596678.58      593891.45      598162.29      1317.0483     -706.96122     -1415.7508      5837.8742      5933.6696      11771.544      141455.49      41.355182      41.355182      82.710365          16000 
    285000   2777.2724      605647.78      1785.4457      605360.59      604490.78      607091.98      782.05604     -194.89751      5300.0871      5743.4911      5990.5305      11734.022      141074.24      41.317995      41.317995      82.635991          16000 
[...]
   3930000   2749.4971      595664.59      6736.8843      594335.91      596124.83      596533.03      148.3237       450.69288     -940.0805       5686.051       6620.7478      12306.799      141143.73      41.339665      41.339665      82.590038          16000 
   3931000   2758.175       604532.6       6744.1394      604995.68      604186.78      604415.36     -3917.9571     -877.89203     -1747.3903      5703.9971      6706.0595      12410.057      140868.27      41.312755      41.312755      82.536276          16000 
   3932000   2759.538       598166.89      6751.3937      597750.61      597693.69      599056.36      4897.6224      244.8362       3462.2218      5706.8158      6628.0445      12334.86       141067.83      41.332254      41.332254      82.575231          16000 
   3933000   2771.8066      598806.79      6758.6524      599435.42      597097.62      599887.32      4449.9621     -999.7036      -421.01139      5732.1876      6608.9881      12341.176      141050.27      41.330539      41.330539      82.571805          16000 
   3934000   2772.702       601750.9       6765.9093      599834.09      601334.69      604083.93      2149.6802      1240.3708     -1153.2251      5734.0394      6643.1882      12377.228      140953.51      41.321086      41.321086      82.552919          16000 
   3935000   2752.5158      598836.93      6773.164       599825.72      597143.77      599541.3       779.59395      1512.2332      3501.3262      5692.2936      6642.7686      12335.062      141064.26      41.331905      41.331905      82.574534          16000 
   3936000   2723.6311      599062.66      6780.4182      597703.33      600115.89      599368.77      2215.7965     -81.947748      1146.9921      5632.5592      6710.7746      12343.334      141042.02      41.329734      41.329734      82.570196          16000 
   3937000   2775.3674      602883.28      6787.6738      602275.51      601633.59      604740.74      4119.0117     -1267.916      -3439.1596      5739.5516      6663.0369      12402.588      140881.27      41.314026      41.314026      82.538815          16000 
   3938000   2737.0946      591793.31      6794.9314      592509.49      589480.17      593390.26      1978.0822      1650.5918      132.22632      5660.4021      6582.5281      12242.93       141308.7       41.355766      41.355766      82.622203          16000 
   3939000   2755.4976      604714.66      6802.1888      603481.78      603860.74      606801.46     -276.55279      2789.5981      775.36189      5698.4602      6727.4516      12425.912      140818.22      41.307861      41.307861      82.526499          16000 
   3940000   2747.8884      598853.62      6809.4471      598808.65      597137.55      600614.66     -1196.4152      1165.07       -1356.2057      5682.724       6648.1258      12330.85       141070.98      41.332562      41.332562      82.575846          16000 
   3941000   2760.5963      599628.49      6816.704       597195.16      600302.92      601387.38     -2588.2287      368.69644      1527.5801      5709.0045      6632.6295      12341.634      141041.24      41.329657      41.329657      82.570043          16000 
   3942000   2761.1171      602717.67      6823.9589      601018.82      602669         604465.19      1275.2731     -14.800538      3248.3317      5710.0814      6679.9808      12390.062      140911.42      41.316973      41.316973      82.544702          16000 
   3943000   2755.4821      595555.83      6831.2159      595694.52      595421.19      595551.79      1221.1165      86.433948      265.30601      5698.428       6609.9661      12308.394      141129.31      41.338258      41.338258      82.587227          16000 
   3944000   2730.2926      595646.4       6838.4697      596272.24      594689.82      595977.15     -144.74131      2097.3619      2518.8753      5646.3354      6662.6727      12309.008      141127.43      41.338074      41.338074      82.586859          16000 
   3945000   2763.1101      610111.23      6845.7255      611345.82      609587.29      609400.6      -1856.9596      1088.7221     -3951.086       5714.2031      6768.5621      12482.765      140666.94      41.293065      41.293065      82.496937          16000 
   3946000   2725.2367      593733.76      6852.9815      593400.71      593681.85      594118.71      3546.0465      2322.8494      1164.4973      5635.8795      6651.2163      12287.096      141185.39      41.343733      41.343733      82.598164          16000 
   3947000   2719.5129      600688.95      6860.2365      600963.92      598296.21      602806.72      3187.4822      3748.9141      1968.9381      5624.0426      6745.829       12369.872      140961.95      41.321911      41.321911      82.554568          16000 
   3948000   2744.6698      600401.69      6867.4944      600982.69      599674.79      600547.59      1285.8303      3230.5829      466.69928      5676.0678      6669.9864      12346.054      141025.18      41.328089      41.328089      82.566909          16000 
   3949000   2750.8737      597810.18      6874.7494      598477.26      594937.61      600015.66     -9.6004453     -1031.7268     -1452.8383      5688.8977      6634.7998      12323.698      141084.01      41.333835      41.333835      82.578389          16000 
   3950000   2746.4583      602835.17      6882.0045      601168.97      602700.74      604635.82     -3486.8294      1751.9068     -1487.0181      5679.7665      6697.2927      12377.059      140940.3       41.319795      41.319795      82.55034           16000 
   3951000   2733.9731      595504.38      6889.2532      594824.66      594263.48      597425.01     -3731.4247     -726.9294       29.21231       5653.9468      6632.8917      12286.839      141180.9       41.343294      41.343294      82.597288          16000 
   3952000   2743.6708      601783.91      6896.5067      601588.48      599957.04      603806.22      2228.8412      2021.5246      956.65725      5674.0018      6690.0949      12364.097      140972.94      41.322985      41.322985      82.556713          16000 
   3953000   2759.2096      604323.5       6903.7565      604200.21      604022.62      604747.67     -1495.3942      269.33566     -129.34485      5706.1367      6704.4986      12410.635      140848.55      41.310827      41.310827      82.532423          16000 
   3954000   2742.1723      598525.14      6911.0067      597835.67      597550.94      600188.79      503.00866     -2111.8116     -5299.3423      5670.9031      6648.7266      12319.63       141090.7       41.334488      41.334488      82.579694          16000 
   3955000   2744.4926      602016.12      6918.257       603033.36      601138.61      601876.38     -2267.4735     -1304.1979      3536.5688      5675.7015      6700.3999      12376.101      140939.55      41.319722      41.319722      82.550194          16000 
   3956000   2760.5427      596399.22      6925.5087      592446.4       596837.65      599913.62     -1088.1892      1918.845      -2146.7944      5708.8936      6582.0517      12290.945      141165.65      41.341806      41.341806      82.594314          16000 
   3957000   2758.3976      602236.42      6932.7602      602373.44      600924.04      603411.79      2300.071       124.53577     -1844.0199      5704.4575      6677.416       12381.874      140921.8       41.317987      41.317987      82.546729          16000 
   3958000   2768.1491      599422.55      6940.0129      598508.83      598440.36      601318.47      1209.838       1973.5929     -10.485538      5724.6238      6599.3729      12323.997      141075.65      41.333018      41.333018      82.576758          16000 
   3959000   2722.5487      597167.17      6947.264       595751.96      596671.55      599078         1772.8755      3256.0521      1147.62        5630.3208      6673.5607      12303.882      141128.51      41.33818       41.33818       82.58707           16000 
   3960000   2753.9776      607467.39      6954.5181      607657.97      607967.6       606776.61     -805.90208      2764.9999      411.44273      5695.3167      6741.9922      12437.309      140772.93      41.303433      41.303433      82.517652          16000 
   3961000   2735.9187      593400.57      6961.7723      593826.08      590314.8       596060.84     -173.35672     -1709.5507      967.1342       5657.9703      6601.9355      12259.906      141244.48      41.3495        41.3495        82.609686          16000 
   3962000   2750.0525      600869.71      6969.0252      599291.64      601755.69      601561.81      4765.107       427.76372     -1946.55        5687.1995      6676.083       12363.283      140967.24      41.322428      41.322428      82.555601          16000 
   3963000   2729.0948      600643.51      6976.2771      599019.3       600046.31      602864.92      2430.182       3002.9146      188.04507      5643.8583      6703.5249      12347.383      141008.42      41.326451      41.326451      82.563637          16000 
   3964000   2752.3558      600829.06      6983.5296      599080.27      602188.91      601217.99     -235.97344     -1616.9962     -1292.8086      5691.9627      6656.3185      12348.281      141005.51      41.326167      41.326167      82.563071          16000 
   3965000   2765.9445      604714.14      6990.7822      603368.29      603817.22      606956.91      3529.4648      2377.9787      511.77196      5720.0646      6688.8217      12408.886      140841.86      41.310173      41.310173      82.531116          16000 
   3966000   2757.0915      597473.79      6998.034       598502.22      596018.96      597900.18     -1069.4745     -3825.0553     -806.97656      5701.7565      6591.3221      12293.079      141148.85      41.340165      41.340165      82.591036          16000 
   3967000   2743.6831      601302.68      7005.2854      601459.68      600432.66      602015.7      -701.58663     -2159.3765      2460.0682      5674.0275      6685.535       12359.562      140969.06      41.322606      41.322606      82.555956          16000 
   3968000   2732.0164      600371.28      7012.5359      599947.96      597636.88      603529.02     -3466.6706      2311.8612     -92.114017      5649.9002      6690.8946      12340.795      141016.86      41.327275      41.327275      82.565285          16000 
   3969000   2751.3578      595348.32      7019.788       596934.77      593746.86      595363.34      2990.8043     -522.41269     -659.90893      5689.8989      6608.4924      12298.391      141129.29      41.338255      41.338255      82.587221          16000 
   3970000   2731.8552      603694.15      7027.0424      603224.19      603294.44      604563.82      2383.2236      1181.9042      469.99738      5649.5668      6725.2866      12374.853      140924.3       41.318232      41.318232      82.547217          16000 
   3971000   2750.7661      603083.81      7034.2973      600994.62      604076.84      604179.96      222.8037       1133.0041      1824.3995      5688.6752      6678.6088      12367.284      140941.22      41.319885      41.319885      82.550519          16000 
   3972000   2735.5467      595559.69      7041.5505      592318.57      597952.36      596408.15     -698.65385      2389.4005     -32.211088      5657.201       6608.5092      12265.71       141213.19      41.346446      41.346446      82.603584          16000 
   3973000   2745.8046      607060.54      7048.8065      607537.48      606847.16      606796.97     -149.90324     -1070.8683     -811.39853      5678.4148      6736.6098      12415.025      140814.48      41.307496      41.307496      82.525769          16000 
   3974000   2744.3928      595521.57      7056.0574      596444.5       594969.14      595151.07     -1029.0085      726.11128      3525.7445      5675.495       6598.5753      12274.07       141188.84      41.344069      41.344069      82.598835          16000 
   3975000   2729.3513      599667         7063.3116      598259.44      598617.42      602124.14      494.8493       163.69388      2392.8531      5644.3887      6693.8629      12338.252      141015.81      41.327173      41.327173      82.565081          16000 
   3976000   2715.2441      601859.9       7070.5616      602234.57      600244.61      603100.51      601.90702     -3375.5424     -3668.9393      5615.2147      6741.6504      12356.865      140964.87      41.322196      41.322196      82.555136          16000 
   3977000   2738.1437      597754.52      7077.8134      597430.84      596251.14      599581.58      1392.4961     -618.16653      5841.7667      5662.5717      6650.0335      12312.605      141082.84      41.33372       41.33372       82.57816           16000 
   3978000   2751.7694      599732.25      7085.0663      598739.43      598496.51      601960.81     -1222.1606     -448.23499      1988.0442      5690.7501      6634.1264      12324.876      141049.94      41.330507      41.330507      82.571742          16000 
   3979000   2751.4546      605628.53      7092.3209      604365.65      604528.77      607991.16     -130.12605      744.96691      2987.534       5690.099       6726.9583      12417.057      140803.97      41.306468      41.306468      82.523715          16000 
   3980000   2744.016       596673.96      7099.5718      594319.25      596454.92      599247.71      2458.1389      5654.8111     -557.85386      5674.7158      6640.4264      12315.142      141075.93      41.333045      41.333045      82.576811          16000 
   3981000   2740.8896      601285.56      7106.8267      601095.16      600222.82      602538.69     -681.79481      1217.9566      2467.7246      5668.2504      6704.8146      12373.065      140919.63      41.317775      41.317775      82.546304          16000 
   3982000   2735.3432      601699.65      7114.0741      600455.13      601226.2       603417.64     -2752.195       1465.7249      2949.809       5656.7801      6695.6402      12352.42       140973.9       41.323078      41.323078      82.5569            16000 
   3983000   2745.8855      596138.69      7121.3233      596617.4       594698.71      597099.96     -3293.8066      1192.1958     -2307.1245      5678.582       6612.5298      12291.112      141137.03      41.339012      41.339012      82.588732          16000 
   3984000   2768.1795      607631.33      7128.5769      606819.21      606833.76      609241.02      398.51419     -1457.8615     -552.75092      5724.6867      6716.8188      12441.505      140737.22      41.29994       41.29994       82.510673          16000 
   3985000   2744.8175      596270.24      7135.8281      595872.66      596584.51      596353.56     -3094.6144      574.5118       657.96166      5676.3733      6618.9592      12295.333      141124.4       41.337779      41.337779      82.586268          16000 
   3986000   2753.7415      602208.85      7143.0735      600629.16      600775.6       605221.8       853.58786     -233.16927     -443.90015      5694.8285      6674.6252      12369.454      140925.7       41.318369      41.318369      82.547491          16000 
   3987000   2760.0203      598862.57      7150.3182      598010.38      600083.42      598493.92      4253.3634      1344.2505      893.83404      5707.8132      6606.2571      12314.07       141070.81      41.332545      41.332545      82.575813          16000 
   3988000   2748.8662      600517.83      7157.5612      599007.15      601053.53      601492.79     -537.05412      195.30103      309.16357      5684.7462      6647.6239      12332.37       141020.72      41.327653      41.327653      82.566039          16000 
   3989000   2741.3899      603615.89      7164.8126      601055.4       604203.1       605589.16     -199.0656      -2442.2704     -2054.8263      5669.2849      6697.8075      12367.092      140928.14      41.318607      41.318607      82.547966          16000 
   3990000   2738.8881      597441.4       7172.0663      597148.82      596947.16      598228.22      400.70929      294.42398     -316.60421      5664.1112      6641.5401      12305.651      141089.26      41.334347      41.334347      82.579413          16000 
   3991000   2738.6203      602529.6       7179.3153      601199.61      601510.59      604878.59      3415.4812     -1788.5625     -568.09166      5663.5572      6702.9724      12366.53       140925.2       41.31832       41.31832       82.547393          16000 
   3992000   2750.4362      598659.55      7186.5621      597899.6       597647.44      600431.62     -1729.6942      1466.4682     -3891.2187      5687.9931      6621.8415      12309.835      141075.36      41.33299       41.33299       82.576701          16000 
   3993000   2734.323       600246.53      7193.811       599286.57      600188.11      601264.91      3751.0924      2801.7125     -582.56051      5654.6704      6669.9784      12324.649      141035.36      41.329083      41.329083      82.568896          16000 
   3994000   2749.1196      597867.27      7201.0597      597245.36      596827.2       599529.24     -3590.2684     -2083.5995      1375.2644      5685.2703      6606.7536      12292.024      141122.05      41.337549      41.337549      82.58581           16000 
   3995000   2766.7033      606235.7       7208.3116      603968.44      606416.29      608322.38      1678.3431      5943.8174     -1033.1482      5721.6338      6685.8764      12407.51       140812.76      41.307328      41.307328      82.525433          16000 
   3996000   2761.5797      596606.05      7215.5605      595406.77      596396.3       598015.08      1090.9824     -2909.3163     -377.2492       5711.038       6564.7276      12275.766      141163.57      41.341603      41.341603      82.593909          16000 
   3997000   2751.9728      598776.63      7222.8106      596661.92      598122.3       601545.68     -2584.1184     -820.18295      1211.0736      5691.1708      6620.4584      12311.629      141066.68      41.332142      41.332142      82.575007          16000 
   3998000   2745.4642      602728.25      7230.0594      600848.42      602327.86      605008.47      2047.9842     -3301.9643     -2147.7819      5677.7107      6672.9435      12350.654      140961.65      41.321882      41.321882      82.554508          16000 
   3999000   2738.45        593889.35      7237.3133      592814.1       592631.47      596222.48      326.81243     -3595.0906     -3439.8955      5663.2051      6595.2555      12258.461      141207.19      41.34586       41.34586       82.602414          16000 
   4000000   2737.4175      601117.88      7244.5736      600241.11      601056.19      602056.35     -381.50019      497.0659      -1537.5252      5661.0698      6690.4313      12351.501      140957         41.321427      41.321427      82.553601          16000 
Loop time of 7244.57 on 8 procs for 1000000 steps with 16000 atoms

Performance: 5.963 ns/day, 4.025 hours/ns, 138.034 timesteps/s
58.0% CPU use with 1 MPI tasks x 8 OpenMP threads

MPI task timing breakdown:
Section |  min time  |  avg time  |  max time  |%varavg| %total
---------------------------------------------------------------
Pair    | 6971       | 6971       | 6971       |   0.0 | 96.22
Neigh   | 7.2906     | 7.2906     | 7.2906     |   0.0 |  0.10
Comm    | 31.628     | 31.628     | 31.628     |   0.0 |  0.44
Output  | 1.4395     | 1.4395     | 1.4395     |   0.0 |  0.02
Modify  | 204.57     | 204.57     | 204.57     |   0.0 |  2.82
Other   |            | 28.61      |            |       |  0.39

Nlocal:          16000 ave       16000 max       16000 min
Histogram: 1 0 0 0 0 0 0 0 0 0
Nghost:          14002 ave       14002 max       14002 min
Histogram: 1 0 0 0 0 0 0 0 0 0
Neighs:              0 ave           0 max           0 min
Histogram: 1 0 0 0 0 0 0 0 0 0
FullNghs:  1.63604e+06 ave 1.63604e+06 max 1.63604e+06 min
Histogram: 1 0 0 0 0 0 0 0 0 0

Total # of neighbors = 1636042
Ave neighs/atom = 102.25262
Neighbor list builds = 19062
Dangerous builds = 0
Total wall time: 7:45:01
