
atom_style atomic
units metal
boundary p p p
#atom_modify sort 0 0.0
newton on

read_data data.lammps
Reading data file ...
  triclinic box = (0 0 0) to (4.3790145 4.3790145 4.3790145) with tilt (-0 0 0)
  1 by 1 by 1 MPI processor grid
  reading atoms ...
  8 atoms
  read_data CPU = 0.003 seconds
replicate 10 10 20
Replicating atoms ...
  triclinic box = (0 0 0) to (43.790145 43.790145 87.58029) with tilt (-0 0 0)
  1 by 1 by 1 MPI processor grid
  16000 atoms
  replicate CPU = 0.018 seconds

### interactions

pair_style flare
pair_coeff * * lmp.flare
Reading potential file lmp.flare with DATE: Thu

# compute unc all flare/std/atom L_inv_lmp.flare sparse_desc_lmp.flare
# compute MaxUnc all reduce max c_unc

mass 1 12.011000
mass 2 28.085000

thermo_style custom step temp press cpu pxx pyy pzz pxy pxz pyz ke pe etotal vol lx ly lz atoms    #c_MaxUnc
thermo 1000
timestep 0.0005
restart 100000 restart_*.dat

#################### Equilibrate at P and T_es ##############################
velocity all create $T 41928459 rot yes dist gaussian
velocity all create 3200 41928459 rot yes dist gaussian
fix mom all momentum 1000 linear 1 1 1 angular

fix 1 all npt temp $T $T $(100.0*dt) iso $P $P $(1000.0*dt)
fix 1 all npt temp 3200 $T $(100.0*dt) iso $P $P $(1000.0*dt)
fix 1 all npt temp 3200 3200 $(100.0*dt) iso $P $P $(1000.0*dt)
fix 1 all npt temp 3200 3200 0.050000000000000002776 iso $P $P $(1000.0*dt)
fix 1 all npt temp 3200 3200 0.050000000000000002776 iso 300000 $P $(1000.0*dt)
fix 1 all npt temp 3200 3200 0.050000000000000002776 iso 300000 300000 $(1000.0*dt)
fix 1 all npt temp 3200 3200 0.050000000000000002776 iso 300000 300000 0.5
dump 1 all custom 1000 1equil.bin id type x y z vx vy vz
run   10000 # report performance
Neighbor list info ...
  update every 1 steps, delay 10 steps, check yes
  max neighbors/atom: 2000, page size: 100000
  master list distance cutoff = 6
  ghost atom cutoff = 6
  binsize = 6, bins = 8 8 15
  1 neighbor lists, perpetual/occasional/extra = 1 0 0
  (1) pair flare/kk, perpetual
      attributes: full, newton on, kokkos_device
      pair build: full/bin/kk/device
      stencil: full/bin/3d
      bin: kk/device
Per MPI rank memory allocation (min/avg/max) = 15.9 | 15.9 | 15.9 Mbytes
   Step          Temp          Press           CPU            Pxx            Pyy            Pzz            Pxy            Pxz            Pyz           KinEng         PotEng         TotEng         Volume           Lx             Ly             Lz          Atoms   
         0   3200           60798.443      0              60479.755      60943.724      60971.85      -444.04471      199.99711     -502.05201      6617.7058     -4109.4047      2508.3011      167941.93      43.790145      43.790145      87.58029           16000 
      1000   3192.9485      298965.95      6.4652312      299727.55      297829.06      299341.24     -972.37715     -297.60891      486.87487      6603.1231      4045.1414      10648.265      155786.95      42.707128      42.707128      85.414255          16000 
      2000   3218.3973      299399.98      12.912445      298997.33      298434.07      300768.54      706.17262      1563.6265     -964.12338      6655.752       3866.5828      10522.335      155848.48      42.712749      42.712749      85.425499          16000 
      3000   3205.8718      302200.38      19.357779      303620.21      300926.21      302054.74      1705.8807     -3649.946      -2929.6862      6629.8489      3871.5265      10501.375      155649.06      42.694523      42.694523      85.389046          16000 
      4000   3232.8887      299516.52      25.79922       300188.47      298421.88      299939.22     -1414.7181     -674.58288      2609.4545      6685.7206      3901.176       10586.897      155776.18      42.706143      42.706143      85.412286          16000 
      5000   3198.9081      298794.5       32.243331      299744.55      298348.15      298290.8      -100.58002     -1350.3821     -3802.4577      6615.4476      3854.8999      10470.347      155708.4       42.699948      42.699948      85.399896          16000 
      6000   3204.8336      299279.74      38.686979      298909.67      299932.13      298997.42     -291.00771      1048.7968      195.96836      6627.7018      4013.9829      10641.685      155787.05      42.707137      42.707137      85.414273          16000 
      7000   3158.808       301333.09      45.129088      303113.83      299806.85      301078.6      -2566.8193     -2547.4247     -797.31698      6532.5194      3919.0375      10451.557      155619.97      42.691863      42.691863      85.383727          16000 
      8000   3198.9793      299748.98      51.57851       299309.17      300302.51      299635.26     -795.94707     -354.18202     -428.9971       6615.595       4014.9083      10630.503      155738.88      42.702734      42.702734      85.405468          16000 
      9000   3163.6885      297760.15      58.023896      296407.71      298498.68      298374.06     -1581.8352     -381.41802      1612.4434      6542.6124      3903.5697      10446.182      155742.54      42.703069      42.703069      85.406138          16000 
     10000   3215.6537      296160.01      64.466441      296146.89      295837.81      296495.34     -1205.1804      1792.0542     -140.46871      6650.0782      3892.6931      10542.771      155951.38      42.722147      42.722147      85.444294          16000 
Loop time of 64.4665 on 8 procs for 10000 steps with 16000 atoms

Performance: 6.701 ns/day, 3.581 hours/ns, 155.119 timesteps/s
61.3% CPU use with 1 MPI tasks x 8 OpenMP threads

MPI task timing breakdown:
Section |  min time  |  avg time  |  max time  |%varavg| %total
---------------------------------------------------------------
Pair    | 61.284     | 61.284     | 61.284     |   0.0 | 95.06
Neigh   | 0.084971   | 0.084971   | 0.084971   |   0.0 |  0.13
Comm    | 0.39207    | 0.39207    | 0.39207    |   0.0 |  0.61
Output  | 0.012215   | 0.012215   | 0.012215   |   0.0 |  0.02
Modify  | 2.4207     | 2.4207     | 2.4207     |   0.0 |  3.75
Other   |            | 0.2725     |            |       |  0.42

Nlocal:          16000 ave       16000 max       16000 min
Histogram: 1 0 0 0 0 0 0 0 0 0
Nghost:          13624 ave       13624 max       13624 min
Histogram: 1 0 0 0 0 0 0 0 0 0
Neighs:              0 ave           0 max           0 min
Histogram: 1 0 0 0 0 0 0 0 0 0
FullNghs:  1.47297e+06 ave 1.47297e+06 max 1.47297e+06 min
Histogram: 1 0 0 0 0 0 0 0 0 0

Total # of neighbors = 1472974
Ave neighs/atom = 92.060875
Neighbor list builds = 257
Dangerous builds = 0
run  990000
Per MPI rank memory allocation (min/avg/max) = 16.08 | 16.08 | 16.08 Mbytes
   Step          Temp          Press           CPU            Pxx            Pyy            Pzz            Pxy            Pxz            Pyz           KinEng         PotEng         TotEng         Volume           Lx             Ly             Lz          Atoms   
     10000   3215.6537      296160.01      0              296146.89      295837.81      296495.34     -1205.1804      1792.0542     -140.46871      6650.0782      3892.6931      10542.771      155951.38      42.722147      42.722147      85.444294          16000 
     11000   3186.269       305347.89      6.4425608      306080.37      304610.16      305353.14      1279.4572      1306.8775     -2665.0939      6589.3097      3980.2986      10569.608      155456.1       42.676873      42.676873      85.353745          16000 
     12000   3228.703       302397.32      12.884888      302911.13      300769.65      303511.19     -223.35269     -1014.7438     -781.0004       6677.0645      3907.0182      10584.083      155565.34      42.686867      42.686867      85.373734          16000 
     13000   3195.2161      300696.7       19.32848       301538.26      299873.33      300678.52     -987.48136     -2243.2628      1717.6487      6607.8126      3919.0965      10526.909      155673.05      42.696716      42.696716      85.393433          16000 
     14000   3236.8555      299974.2       25.771083      299967.56      301500.94      298454.11     -75.840828      1713.8173      297.53977      6693.9241      3878.4547      10572.379      155780.66      42.706552      42.706552      85.413105          16000 
     15000   3204.4322      299609.61      32.212662      299419.5       299688.52      299720.83      904.31435      2060.771      -289.3361       6626.8718      3902.5745      10529.446      155759.19      42.704591      42.704591      85.409181          16000 
     16000   3176.8325      298876.09      38.656712      298293.38      298583.54      299751.35      66.848267      1025.3804     -203.09343      6569.7946      3898.9326      10468.727      155708.33      42.699942      42.699942      85.399885          16000 
     17000   3205.7283      305368.78      45.098863      305515.69      304398.94      306191.7       594.90164      252.68862      2614.2973      6629.552       4070.74        10700.292      155517.12      42.682456      42.682456      85.364913          16000 
     18000   3182.2011      305601.86      51.542151      305589.89      306089.05      305126.63     -1566.2556      716.88646      1042.4135      6580.8972      3954.4059      10535.303      155407.02      42.672381      42.672381      85.344762          16000 
     19000   3236.0774      299507.51      57.985522      299105.37      300825.89      298591.27      416.49674     -2155.1503      1772.2129      6692.3149      3921.9171      10614.232      155769.18      42.705504      42.705504      85.411008          16000 
     20000   3185.3825      298265.69      64.430217      298670.12      297263.37      298863.59     -394.8171       4028.6948     -2677.0056      6587.4763      3858.9501      10446.426      155765.38      42.705156      42.705156      85.410312          16000 
     21000   3213.4043      299557.41      70.796001      301336.38      299523.33      297812.51      754.19727      129.43483     -264.72756      6645.4263      3910.1454      10555.572      155732.3       42.702133      42.702133      85.404266          16000 
     22000   3244.3913      301616.08      77.161514      301397.97      301389.45      302060.83     -725.47969      2759.2407     -2562.4363      6709.5084      3952.6879      10662.196      155645.63      42.69421       42.69421       85.38842           16000 
     23000   3179.0234      305364.64      83.525581      304443.15      306098.16      305552.62     -939.52504      1478.621      -1250.1253      6574.3255      3974.5568      10548.882      155324.68      42.664844      42.664844      85.329687          16000 
     24000   3194.505       300363.18      89.890881      300334.89      299838.32      300916.33      1651.4647     -2532.531       2216.9987      6606.342       3916.4792      10522.821      155621.87      42.692037      42.692037      85.384074          16000 
     25000   3204.4086      298636.46      96.255183      297152.04      299811.26      298946.09      1497.4862      1738.5163      2462.6186      6626.823       3885.8288      10512.652      155792.79      42.707661      42.707661      85.415322          16000 
     26000   3218.8582      297385.84      102.61935      297015.57      297570.46      297571.49      1097.2464      81.980915      3184.729       6656.7052      3949.4412      10606.146      155859.35      42.713742      42.713742      85.427485          16000 
     27000   3161.1079      298346.19      108.98465      298399.37      296771.88      299867.33      955.71464     -2077.8121      2831.2369      6537.2757      3929.3245      10466.6        155702.73      42.69943       42.69943       85.398861          16000 
     28000   3241.2164      304114.51      115.34938      305313.32      303300.14      303730.07     -931.92192     -1873.5204      1116.6662      6702.9427      3914.4065      10617.349      155478.23      42.678898      42.678898      85.357796          16000 
     29000   3206.163       306205.21      121.71565      306307.86      306005.54      306302.23     -123.73744     -458.08505      0.92319028     6630.451       3951.3503      10581.801      155413.48      42.672972      42.672972      85.345945          16000 
     30000   3180.3527      300033.82      128.07996      300189.2       300563.65      299348.6       541.8804       732.52927      158.43192      6577.0745      4010.3597      10587.434      155788.45      42.707264      42.707264      85.414528          16000 
     31000   3175.1348      297551.51      134.44528      298158.37      296510.22      297985.94     -2726.3477      602.70937     -1422.3836      6566.2837      3866.4506      10432.734      155813.09      42.709516      42.709516      85.419032          16000 
     32000   3187.7059      302218.98      140.81219      302256.46      302056.43      302344.05      580.70707     -2499.3569     -252.40317      6592.2812      3953.3625      10545.644      155597.16      42.689778      42.689778      85.379555          16000 
     33000   3206.822       304468.49      147.17868      302866.09      304723.11      305816.27     -1421.8265      461.42213      746.78792      6631.814       3967.7692      10599.583      155495.21      42.680452      42.680452      85.360904          16000 
     34000   3234.0628      301964.92      153.54544      303011.79      300874.12      302008.84      1092.5867      455.42441      1733.2995      6688.1488      3956.4635      10644.612      155647.86      42.694413      42.694413      85.388827          16000 
     35000   3172.0682      297222.54      159.9109       296783.35      298191.16      296693.1       467.90804     -867.55924      804.33917      6559.9419      3902.7177      10462.66       155820.78      42.710218      42.710218      85.420437          16000 
     36000   3183.8904      298103.52      166.2747       299318.06      296715.26      298277.24      3800.3586     -832.3126      -2131.9522      6584.3906      3914.474       10498.865      155789.22      42.707335      42.707335      85.41467           16000 
     37000   3185.9062      300463.53      172.63563      299835.08      300035.3       301520.2       1728.4076      706.29328      130.67903      6588.5594      3961.6393      10550.199      155668.37      42.696289      42.696289      85.392578          16000 
     38000   3206.0447      304955.1       178.9978       305270.57      305335.15      304259.58     -368.72185     -3610.3432     -1072.703       6630.2064      3952.5353      10582.742      155423.36      42.673877      42.673877      85.347754          16000 
     39000   3200.6775      302295.06      185.36227      303033.09      300631.8       303220.29      1734.3637     -1688.1118     -1039.064       6619.1068      3965.4265      10584.533      155565.19      42.686853      42.686853      85.373707          16000 
     40000   3211.4314      299422.22      191.72566      299812.81      300192.75      298261.09     -1269.5697      1429.3174     -2508.8585      6641.3463      3867.7276      10509.074      155723.97      42.701372      42.701372      85.402744          16000 
     41000   3164.7798      298999.49      198.09038      299080.56      300279.62      297638.28     -306.48838     -1286.7046      175.37497      6544.8692      3876.763       10421.632      155749.59      42.703713      42.703713      85.407427          16000 
     42000   3197.8535      298694.66      204.45356      298686.06      298687.37      298710.55     -3437.9141      234.0066      -1383.5118      6613.2667      3929.39        10542.657      155777.13      42.70623       42.70623       85.412459          16000 
     43000   3162.5393      304597.01      210.818        305055.84      303916.57      304818.62     -1065.9463      28.244677     -1216.866       6540.2358      3931.7667      10472.002      155422.9       42.673835      42.673835      85.34767           16000 
     44000   3226.5443      303412.87      217.18434      304104.29      303389.59      302744.72     -149.83284     -1130.3107      273.92395      6672.6002      3937.5177      10610.118      155474.41      42.678549      42.678549      85.357097          16000 
     45000   3202.299       298606.58      223.54895      298668.51      298491.12      298660.11     -1865.3984     -168.1673       2544.9168      6622.4602      3921.4509      10543.911      155778.99      42.7064        42.7064        85.4128            16000 
     46000   3222.7383      296733.53      229.91607      296388.99      296158.75      297652.85      1822.2823     -1329.5043     -897.75313      6664.7294      3897.6333      10562.363      155950.36      42.722054      42.722054      85.444108          16000 
     47000   3218.6022      298620.45      236.28228      298063.49      299613         298184.87     -2241.8188      533.05765      803.21405      6656.1759      3857.6892      10513.865      155691.63      42.698415      42.698415      85.39683           16000 
     48000   3222.5557      303445.02      242.64705      302743.73      304128.39      303462.95     -3452.442      -434.76361     -156.24024      6664.3518      3981.4484      10645.8        155533.04      42.683913      42.683913      85.367825          16000 
     49000   3183.3394      302897.91      249.01409      301876.61      302945.54      303871.57     -2387.2821     -1215.0856      756.50636      6583.2512      4010.8717      10594.123      155568.91      42.687194      42.687194      85.374387          16000 
     50000   3174.6234      299070.03      255.37763      299128.91      298432.53      299648.66     -166.22192     -428.47089     -289.46266      6565.2261      3865.3296      10430.556      155692.39      42.698485      42.698485      85.39697           16000 
     51000   3197.1134      297316.59      261.74411      295346.32      296819.91      299783.55      1252.0298     -1306.9185      885.45067      6611.7361      3900.8142      10512.55       155895.89      42.71708       42.71708       85.434161          16000 
     52000   3174.7201      300370.17      268.10665      300189.45      300411.1       300509.96     -3774.4087     -1707.7442      3056.5866      6565.4262      3916.9609      10482.387      155710.83      42.70017       42.70017       85.40034           16000 
     53000   3195.5577      300408.64      274.46988      300936.31      299602.37      300687.25     -1110.5356      655.28097     -1197.2583      6608.519       3933.6388      10542.158      155671.26      42.696553      42.696553      85.393106          16000 
     54000   3188.8512      302570.07      280.8345       301302.68      303703.7       302703.84     -723.91238     -2541.1935     -321.89078      6594.6496      3879.2095      10473.859      155584.43      42.688614      42.688614      85.377227          16000 
     55000   3199.3599      302214.46      287.19796      302481.86      302234.83      301926.7       265.33586     -2408.6916     -117.21152      6616.3821      3992.5952      10608.977      155700.03      42.699183      42.699183      85.398367          16000 
     56000   3198.9452      294939.51      293.5608       294532.05      293770.28      296516.19     -1202.0248     -3768.9809     -1524.2451      6615.5244      3909.672       10525.196      155965.49      42.723436      42.723436      85.446872          16000 
     57000   3195.8548      295638.72      299.92988      296764.05      297035.59      293116.52     -844.23714      926.92616     -826.27153      6609.1334      3866.1065      10475.24       155973.1       42.724131      42.724131      85.448262          16000 
     58000   3220.9672      299150.79      306.29735      298742.79      299722.98      298986.62      1235.519      -217.65646      306.29222      6661.0666      3905.9294      10566.996      155827.41      42.710824      42.710824      85.421648          16000 
     59000   3184.8769      300582.44      312.66404      299608.9       301083.24      301055.18     -1847.3033      2572.2589      1031.7003      6586.4307      3803.8936      10390.324      155621.05      42.691962      42.691962      85.383923          16000 
     60000   3186.4345      302670.21      319.03345      301790.1       302664.43      303556.11      122.6507      -291.74153     -1801.3215      6589.6518      4029.3549      10619.007      155619.01      42.691776      42.691776      85.383552          16000 
     61000   3214.3018      301744.47      325.4013       301133.72      301186.33      302913.35      641.08315     -1386.6914      285.709        6647.2824      3953.4806      10600.763      155637.45      42.693462      42.693462      85.386924          16000 
     62000   3147.3681      298203.69      331.77138      298314.37      297757.17      298539.53     -1217.5582     -1785.8228      196.40257      6508.8613      3820.2806      10329.142      155784.96      42.706945      42.706945      85.413891          16000 
     63000   3220.353       296336.68      338.14425      297530.59      295147.1       296332.35     -3530.2896     -1507.3438     -1036.0964      6659.7964      3906.1288      10565.925      155998.48      42.726448      42.726448      85.452897          16000 
     64000   3215.3699      299005.66      344.51688      299909.69      298563.72      298543.56     -2137.8699     -1891.7077      1453.5465      6649.4912      3882.7929      10532.284      155798.85      42.708214      42.708214      85.416429          16000 
     65000   3175.2469      302950.49      350.88936      302304.69      304168.85      302377.94      3690.4242      225.13269     -2531.2443      6566.5155      3994.3402      10560.856      155552.18      42.685664      42.685664      85.371327          16000 
     66000   3165.5289      304649.39      357.26199      305114.52      305645.84      303187.8       1624.5629     -2641.2161      2030.4531      6546.4185      4017.9493      10564.368      155491.29      42.680093      42.680093      85.360185          16000 
     67000   3164.3796      298711.48      363.63539      296931.15      299745.56      299457.73      1459.7249     -1639.4145     -1684.7375      6544.0417      3898.3331      10442.375      155715.81      42.700626      42.700626      85.401252          16000 
     68000   3212.6689      293982.65      370.00836      296112.72      293458.87      292376.36     -1404.9445      468.7369      -1372.4391      6643.9054      3858.1291      10502.035      156072.85      42.733237      42.733237      85.466474          16000 
     69000   3201.8879      297948.21      376.38343      298593.56      297117.38      298133.7       565.39526     -3559.4519      1014.672       6621.6101      3905.249       10526.859      155763.92      42.705023      42.705023      85.410045          16000 
     70000   3212.5836      304048.94      382.75728      305349.63      302730.39      304066.8      -1175.9497      592.73284     -1314.6364      6643.7292      3955.7815      10599.511      155460.48      42.677274      42.677274      85.354547          16000 
     71000   3180.7406      302839.18      389.13148      302148.63      301848.07      304520.83      820.20868     -77.831464      1967.7242      6577.8766      3975.5758      10553.452      155531.34      42.683757      42.683757      85.367514          16000 
     72000   3204.4277      299869.3       395.50603      298233.46      300895.03      300479.41     -1051.829      -445.18971      692.57994      6626.8624      3948.7515      10575.614      155747.98      42.703566      42.703566      85.407132          16000 
     73000   3181.4522      299701.94      401.8803       300590.98      299572.05      298942.81      1814.5825     -2573.7669     -986.80115      6579.3484      3986.7421      10566.09       155685.7       42.697873      42.697873      85.395746          16000 
     74000   3224.2094      302114.15      408.25527      300700.45      300777.93      304864.06     -653.16913      32.483178      1265.8005      6667.7715      3915.1932      10582.965      155573.7       42.687632      42.687632      85.375263          16000 
     75000   3196.3363      303330.8       414.62884      302681.78      303370.89      303939.74     -2263.1349     -1132.4332     -309.47321      6610.1291      3994.7229      10604.852      155623.42      42.692179      42.692179      85.384358          16000 
     76000   3205.7114      294963.56      421.00298      294630.93      296142.16      294117.58      175.10987     -1354.9067      2036.8714      6629.5171      3846.3749      10475.892      155974.86      42.724292      42.724292      85.448584          16000 
     77000   3216.1704      295658.67      427.37775      295536.88      296040.98      295398.14     -2190.1138      1218.2445     -2275.8294      6651.1467      3918.1237      10569.27       155974.91      42.724296      42.724296      85.448593          16000 
     78000   3190.1197      299195.35      433.75066      298776.35      300328.35      298481.35     -3206.2358     -1112.0379      373.31359      6597.2729      3945.451       10542.724      155758.47      42.704525      42.704525      85.40905           16000 
     79000   3223.5765      300961.33      440.12376      301481.48      300209.33      301193.16      1052.7399      1559.49       -196.25508      6666.4627      3879.5632      10546.026      155622.11      42.692059      42.692059      85.384118          16000 
     80000   3170.2849      300320.76      446.49522      300336.06      299239.64      301386.57     -1895.1234     -1469.0705      240.21083      6556.2541      3903.6919      10459.946      155731.24      42.702036      42.702036      85.404072          16000 
     81000   3175.4173      296780.85      452.8679       296771.2       296547.46      297023.9      -2640.4461     -1556.9108      967.66469      6566.8679      3937.8491      10504.717      155882.63      42.715869      42.715869      85.431737          16000 
     82000   3219.3001      298022.33      459.24313      298196.78      297147.52      298722.69     -1491.3447     -757.92011     -2053.8607      6657.619       3899.0664      10556.685      155850.28      42.712913      42.712913      85.425827          16000 
     83000   3200.6341      307318.07      465.61564      306423.5       306808.64      308722.06     -3334.3059      205.10565      280.50824      6619.0172      3947.5997      10566.617      155348.8       42.667052      42.667052      85.334104          16000 
     84000   3218.2851      303498.77      471.99189      304264.55      302239.77      303991.99     -2252.6985     -161.30295      520.69436      6655.5199      3964.6776      10620.198      155575.89      42.687832      42.687832      85.375664          16000 
     85000   3206.0123      299697.44      478.36825      299980.56      300882.45      298229.32      1955.0798     -1555.7438      375.77387      6630.1394      3785.0596      10415.199      155696.36      42.698847      42.698847      85.397695          16000 
     86000   3196.3595      296745.01      484.74387      297159.39      297158.18      295917.47      732.90658      800.63443     -552.05358      6610.1771      3908.6289      10518.806      155889.01      42.716452      42.716452      85.432904          16000 
     87000   3178.5022      300391.61      491.12745      299061.06      301268.15      300845.6      -115.20256      1468.4058     -2445.1499      6573.2477      3836.5373      10409.785      155695.77      42.698794      42.698794      85.397587          16000 
     88000   3204.9448      301077.18      497.51301      301197.62      300981.88      301052.03     -693.1368      -762.42132     -402.24944      6627.9319      3964.0842      10592.016      155702.08      42.69937       42.69937       85.398741          16000 
     89000   3180.6979      302665.44      503.89796      302823.52      302597.84      302574.98      3893.2624      913.66077      837.09564      6577.7883      3940.3886      10518.177      155527.24      42.683382      42.683382      85.366763          16000 
     90000   3193.3344      301857.75      510.28902      301390.13      301558.07      302625.06     -776.31471     -1840.2964      1060.157       6603.9211      4005.5046      10609.426      155661.64      42.695673      42.695673      85.391347          16000 
     91000   3202.3587      299365.3       516.68623      300139.2       298822.6       299134.08      3104.6449      423.25338      449.25435      6622.5836      3778.6897      10401.273      155761.89      42.704837      42.704837      85.409674          16000 
     92000   3203.5193      293910.93      523.08448      294714.03      293622.35      293396.42     -2334.9313      1585.9039      420.83878      6624.9838      3881.7795      10506.763      156093.3       42.735103      42.735103      85.470205          16000 
     93000   3172.2747      297695.26      529.4849       296819.74      298299.76      297966.27     -57.886526     -1834.7812     -2490.0219      6560.3689      3863.9303      10424.299      155792.94      42.707674      42.707674      85.415348          16000 
     94000   3184.3765      300519.38      535.88446      299735.42      301145.13      300677.59      1230.7843      226.92119      491.47675      6585.396       3984.1683      10569.564      155681.07      42.69745       42.69745       85.394899          16000 
     95000   3181.4142      302125.17      542.28241      300839.75      303217.64      302318.11      977.19237      3179.9532      46.327735      6579.2698      3902.0997      10481.369      155531.05      42.68373       42.68373       85.367461          16000 
     96000   3210.4844      299802.38      548.68365      298099.53      301706.48      299601.14      899.15378     -2342.754       648.9392       6639.3879      3944.3687      10583.757      155765.17      42.705137      42.705137      85.410275          16000 
     97000   3186.5984      296880.62      555.06839      296013.77      298384.89      296243.22     -306.44159      869.7547       1545.5315      6589.9907      3848.9587      10438.949      155838.12      42.711803      42.711803      85.423605          16000 
     98000   3212.4628      292701.84      561.46673      293875.32      292513.61      291716.58     -1872.0199     -462.63323     -609.21509      6643.4792      3897.4831      10540.962      156068.82      42.732869      42.732869      85.465738          16000 
     99000   3211.0547      299356.36      567.86702      300212.23      299089.69      298767.17      3100.3597      247.7743      -298.3897       6640.5673      3904.6248      10545.192      155719.14      42.70093       42.70093       85.40186           16000 
    100000   3158.6857      303739.76      574.27865      303819.58      304192.83      303206.87     -2945.6147     -804.25305      105.55627      6532.2666      3963.909       10496.176      155438.99      42.675307      42.675307      85.350614          16000 
    101000   3249.5653      301269.61      580.68287      299535.5       301292.71      302980.62     -1225.5829      268.04279      203.40461      6720.2085      3833.6208      10553.829      155632.4       42.693         42.693         85.386             16000 
    102000   3170.0988      300484.83      587.06292      299671.15      300260.32      301523.03      1559.4043     -607.25598      171.26954      6555.8691      3943.4865      10499.356      155629.48      42.692733      42.692733      85.385466          16000 
    103000   3202.8286      297638.95      593.47543      298461.68      296367.23      298087.94     -813.16852      1808.9554     -906.6377       6623.5555      3872.7671      10496.323      155781.1       42.706592      42.706592      85.413185          16000 
    104000   3225.5281      298411.34      599.87982      298602.82      298283.15      298348.04     -440.16778     -975.24565     -311.92289      6670.4987      3881.4693      10551.968      155794.59      42.707825      42.707825      85.41565           16000 
    105000   3210.2049      305463.66      606.28634      305715.89      305234.56      305440.53     -517.00404     -1606.2537     -40.870455      6638.8098      3952.4699      10591.28       155390.43      42.670863      42.670863      85.341726          16000 
    106000   3219.6713      303531         612.69199      302444.81      304119.88      304028.3       1203.4954     -436.07105      1012.7227      6658.3867      4026.3588      10684.745      155568.04      42.687114      42.687114      85.374228          16000 
    107000   3172.6126      298927.72      619.10073      299060.52      300715.37      297007.27     -1647.6075      3272.1685      2506.2252      6561.0677      3956.1716      10517.239      155735.1       42.702388      42.702388      85.404777          16000 
    108000   3196.341       298859.7       625.50608      297714.96      299612.71      299251.44      594.3762       241.49001      550.33627      6610.1389      4008.9966      10619.135      155780.23      42.706513      42.706513      85.413026          16000 
    109000   3193.3887      301859.27      631.91265      301715.19      302446.79      301415.83      1333.5761     -668.66549      284.94033      6604.0334      3909.006       10513.039      155596.99      42.689761      42.689761      85.379523          16000 
    110000   3196.7092      301484.09      638.32083      301550.98      300266.63      302634.67      3615.775       1419.967      -411.47166      6610.9004      3950.2882      10561.189      155571.97      42.687473      42.687473      85.374947          16000 
    111000   3184.1763      299194.15      644.72305      298917.9       299682.93      298981.6      -2849.4472      139.75738      380.55569      6584.9819      3912.0595      10497.041      155688.89      42.698164      42.698164      85.396329          16000 
    112000   3193.0996      293681.54      651.10587      294702.17      292326.81      294015.63     -3423.1588      346.71155     -216.97221      6603.4355      3893.5671      10497.003      156038.97      42.730144      42.730144      85.460288          16000 
    113000   3198.9506      298102.87      657.47701      298961.12      297509.69      297837.79      914.7232      -993.23619      1870.0274      6615.5355      3870.3414      10485.877      155777.23      42.706239      42.706239      85.412479          16000 
    114000   3216.7711      302269.06      663.84852      302230.37      302011.85      302564.95      436.05572      570.08064      3465.7254      6652.389       3907.8102      10560.199      155559.41      42.686325      42.686325      85.372649          16000 
    115000   3167.5259      304066.15      670.21849      304078         304228.87      303891.59     -569.56221     -1317.9634     -2650.8132      6550.5483      3955.0744      10505.623      155518.04      42.682541      42.682541      85.365081          16000 
    116000   3219.2863      299960.17      676.58682      301114.58      298859.52      299906.43     -456.09378      3536.8297     -2180.8398      6657.5905      3966.2564      10623.847      155778.49      42.706354      42.706354      85.412709          16000 
    117000   3208.3524      296214.05      682.95523      296665.26      296047.32      295929.58      43.660597     -554.92277     -1792.0793      6634.9789      3858.2747      10493.254      155865.25      42.714281      42.714281      85.428562          16000 
    118000   3204.766       297806.64      689.32469      297295.78      297796.69      298327.45      1224.3002     -1436.1385     -1599.9409      6627.562       4026.4535      10654.016      155899.47      42.717407      42.717407      85.434814          16000 
    119000   3200.9513      300946.25      695.69256      300884.62      301051.6       300902.54     -2911.1599     -107.86198      474.25281      6619.6731      3916.6477      10536.321      155683.86      42.697705      42.697705      85.395409          16000 
    120000   3195.967       301441.65      702.0637       301963.58      301536.58      300824.78     -1585.3585      3551.6063     -255.94685      6609.3654      3942.8588      10552.224      155636.49      42.693374      42.693374      85.386748          16000 
    121000   3194.1789      299480.75      708.43531      299791.98      298525.02      300125.25      781.99511     -899.78514      1478.8         6605.6676      3936.1096      10541.777      155759.47      42.704616      42.704616      85.409231          16000 
    122000   3164.8563      296184.44      714.80375      297772.96      295244.79      295535.58      1064.9427     -888.57978      1037.1579      6545.0276      3883.5493      10428.577      155890.98      42.716631      42.716631      85.433262          16000 
    123000   3224.2138      299262.48      721.17328      299364.5       298133.16      300289.77     -308.28593     -612.41212      737.06895      6667.7807      3876.7321      10544.513      155767         42.705304      42.705304      85.410608          16000 
    124000   3187.5951      302582.47      727.542        302237.88      303392.72      302116.8      -803.37062      751.54595      476.465        6592.0521      3927.9732      10520.025      155499.36      42.680831      42.680831      85.361663          16000 
    125000   3221.6904      305729.46      733.91106      305902.35      306499.87      304786.17     -362.17409     -221.71796      227.58033      6662.5623      3979.4658      10642.028      155444.03      42.675769      42.675769      85.351537          16000 
    126000   3200.8529      301066.36      740.28218      300229.14      301249.28      301720.66     -704.1022       125.20868     -473.24469      6619.4695      3967.8201      10587.29       155633.55      42.693105      42.693105      85.386211          16000 
    127000   3179.5585      300462.55      746.65771      299294.92      300962.21      301130.51      2528.4153      214.67567      108.79869      6575.4321      3913.7152      10489.147      155717.52      42.700782      42.700782      85.401563          16000 
    128000   3210.0323      298822.27      753.04592      299401.36      298267.16      298798.29      2418.0058     -3784.3498     -2554.2655      6638.453       3850.699       10489.152      155754.83      42.704192      42.704192      85.408385          16000 
    129000   3211.7223      301050.92      759.43312      301097.59      300549.12      301506.07      1764.3315     -1528.8343      1172.1446      6641.948       3933.1147      10575.063      155673.86      42.696791      42.696791      85.393582          16000 
    130000   3205.9878      309002.12      765.82231      309811.36      307848.62      309346.38     -376.55047      3241.5101      2411.6197      6630.0887      3982.2535      10612.342      155245.71      42.657612      42.657612      85.315224          16000 
    131000   3234.0784      301906.93      772.21591      301651.52      301717.97      302351.3      -540.83613      594.62173      1524.8742      6688.1811      3926.0978      10614.279      155692.81      42.698523      42.698523      85.397046          16000 
    132000   3185.5081      298228.42      778.61472      299013.64      298176.95      297494.68     -331.71434      440.80506     -1441.4153      6587.736       3919.9606      10507.697      155840.16      42.711989      42.711989      85.423977          16000 
    133000   3169.9573      299707.1       785.01273      301199.75      298475.56      299445.99     -274.89474     -1454.1357     -1247.6162      6555.5765      3865.6412      10421.218      155694.51      42.698679      42.698679      85.397358          16000 
    134000   3180.485       299380.39      791.41456      299756.08      298413.6       299971.5       507.15877     -2671.7722      1865.844       6577.3481      4001.6522      10579          155746.11      42.703395      42.703395      85.406791          16000 
    135000   3200.0853      302760.16      797.81684      303946.85      300241.19      304092.44     -656.701        1972.6829      403.57854      6617.8823      3905.2565      10523.139      155512.46      42.682029      42.682029      85.364059          16000 
    136000   3215.7851      302964.2       804.22056      301551.44      303428.24      303912.92     -1853.4162     -1690.2527     -1220.3268      6650.35        3929.8173      10580.167      155528.45      42.683493      42.683493      85.366986          16000 
    137000   3224.2599      300199.64      810.6245       302803.25      298829.97      298965.7       3265.7094     -2916.0853      276.95801      6667.8762      3949.3369      10617.213      155686.35      42.697933      42.697933      85.395865          16000 
    138000   3169.8917      300029.27      817.02832      300491.62      301236.63      298359.55     -2086.7547      301.94637      111.13846      6555.4407      3943.9133      10499.354      155675.47      42.696938      42.696938      85.393877          16000 
    139000   3200.8833      294558.59      823.43529      293986.94      296464.71      293224.11     -1095.9137      852.73058     -2104.3715      6619.5326      3844.0167      10463.549      155991.13      42.725777      42.725777      85.451555          16000 
    140000   3208.3891      297110.21      829.84133      295708.05      298062         297560.57     -3202.8668     -1792.4784     -242.76731      6635.0547      3891.1463      10526.201      155848.5       42.712751      42.712751      85.425502          16000 
    141000   3165.7038      302721.41      836.24906      302774.08      302976.08      302414.06      84.259278      1059.1858      2108.763       6546.7802      3872.7091      10419.489      155516.31      42.682382      42.682382      85.364763          16000 
    142000   3216.8259      304879.23      842.657        302632.68      307177.3       304827.72      656.80932     -529.2505       2080.7735      6652.5023      3960.2125      10612.715      155402.39      42.671958      42.671958      85.343915          16000 
    143000   3179.0214      304114.55      849.06531      304122.21      304957.55      303263.89      51.439568      2108.8902      216.59818      6574.3213      3868.5929      10442.914      155459.5       42.677184      42.677184      85.354369          16000 
    144000   3200.6083      298711.84      855.47473      299206.74      298562.15      298366.63      2526.4533     -201.153        1978.1226      6618.9637      3910.1661      10529.13       155769.11      42.705497      42.705497      85.410995          16000 
    145000   3183.5543      297502.89      861.88578      296204.44      297484.34      298819.89     -2852.2478     -223.97618     -2856.5844      6583.6956      3933.1552      10516.851      155819.08      42.710063      42.710063      85.420127          16000 
    146000   3199.8173      301748.22      868.29616      301740.96      301450.83      302052.86     -421.01278      974.69142     -964.35928      6617.3279      3926.6928      10544.021      155599.46      42.689988      42.689988      85.379975          16000 
    147000   3209.1837      305263.96      874.70632      305575.01      306159.49      304057.37      359.31473      7.8546667     -127.36812      6636.6979      3978.9265      10615.624      155477.06      42.678791      42.678791      85.357583          16000 
    148000   3190.2734      299069.38      881.12675      298036.99      299800.53      299370.62      1793.485      -647.33661      678.3834       6597.5908      3946.1217      10543.713      155736.37      42.702505      42.702505      85.405009          16000 
    149000   3190.9851      294803.03      887.53747      294241.79      294889.97      295277.34      625.99965      77.257355     -363.57582      6599.0626      3908.9485      10508.011      155959.27      42.722868      42.722868      85.445736          16000 
    150000   3190.3248      299078.67      893.94492      299283.27      299070.21      298882.52     -1807.8936      478.05524      1743.9591      6597.6972      3955.1629      10552.86       155754.77      42.704186      42.704186      85.408372          16000 
    151000   3176.5507      302294.46      900.35314      301866.85      302540.01      302476.51      2657.615       936.81896     -1115.3492      6569.2118      3908.5523      10477.764      155520.84      42.682797      42.682797      85.365593          16000 
    152000   3192.7441      300707.33      906.76012      301400.3       300922.04      299799.64     -709.9133       961.26178      677.61803      6602.7003      3973.3824      10576.083      155668.48      42.696299      42.696299      85.392598          16000 
    153000   3215.624       301674.54      913.16491      301273.41      302496.73      301253.47      820.56689     -235.31165      979.29441      6650.0168      3871.003       10521.02       155587.91      42.688932      42.688932      85.377863          16000 
    154000   3222.5662      300708.71      919.57483      300662.56      299906.15      301557.43      2270.1588      1395.824       2422.7148      6664.3734      3939.918       10604.291      155776.32      42.706156      42.706156      85.412311          16000 
    155000   3197.8012      300525.36      925.98034      300258.7       301493.37      299824.02     -3228.005      -2119.7188      203.34366      6613.1586      3893.6815      10506.84       155663.47      42.695841      42.695841      85.391682          16000 
    156000   3218.6023      300388.42      932.38784      300275.28      299540.15      301349.84      1672.8037      516.30807     -1203.7958      6656.176       3951.4863      10607.662      155805.56      42.708828      42.708828      85.417655          16000 
    157000   3194.0361      298205.03      938.79631      298903         297594.78      298117.29      1434.1379      1018.181       391.07632      6605.3722      3852.8848      10458.257      155814.51      42.709646      42.709646      85.419292          16000 
    158000   3222.2125      297233.68      945.20291      296582.46      298505.52      296613.05     -2413.5649      1354.215      -464.2503       6663.642       3927.5303      10591.172      155903.82      42.717805      42.717805      85.435609          16000 
    159000   3208.4354      299990.1       951.61029      300660.45      299778.1       299531.74     -626.44109     -1156.3209     -746.52913      6635.1504      3888.5778      10523.728      155718.55      42.700876      42.700876      85.401751          16000 
    160000   3216.0074      301547.33      958.01868      301443.29      301434.84      301763.85      646.45692      1103.4943     -952.37881      6650.8096      4004.0523      10654.862      155680.31      42.69738       42.69738       85.39476           16000 
    161000   3187.8427      304773.87      964.42876      304925.56      303977.99      305418.06      1464.0517      198.05484     -1298.4904      6592.5641      3993.7806      10586.345      155413.06      42.672934      42.672934      85.345868          16000 
    162000   3215.9063      297599.06      970.83931      297961.85      298277.63      296557.7      -1337.9523      434.04137     -397.75826      6650.6006      3898.421       10549.022      155766.95      42.7053        42.7053        85.4106            16000 
    163000   3174.71        298036.49      977.2486       298110.68      297019.81      298978.98     -1832.4833      1427.8333     -758.0774       6565.4053      3877.4613      10442.867      155823.41      42.710458      42.710458      85.420917          16000 
    164000   3203.1582      300300.59      983.65994      301073         301600.82      298227.96     -465.20536      226.30022      467.89042      6624.2371      3903.1434      10527.38       155656.09      42.695166      42.695166      85.390333          16000 
    165000   3215.9289      303119.66      990.07145      303165.57      303323.43      302869.98      2948.7807      2380.3506     -1556.4766      6650.6472      3885.0728      10535.72       155580.24      42.68823       42.68823       85.37646           16000 
    166000   3197.9934      301464.32      996.479        301181.12      300841.41      302370.41      1462.3852      1711.492       3771.0496      6613.5561      3969.5215      10583.078      155679.52      42.697308      42.697308      85.394617          16000 
    167000   3202.7705      299517.54      1002.8872      299294.15      300113.47      299145         623.96475     -3562.0027     -4188.988       6623.4352      3925.9145      10549.35       155796.11      42.707964      42.707964      85.415929          16000 
    168000   3177.64        295775.11      1009.2985      295936.55      296200.84      295187.95     -2721.0787     -1072.1997     -548.94834      6571.4646      3876.1755      10447.64       156002.34      42.7268        42.7268        85.4536            16000 
    169000   3208.6898      298472.49      1015.7083      299249.34      298883.35      297284.8      -605.31736      4510.4866      1869.6694      6635.6766      3893.8867      10529.563      155759.6       42.704628      42.704628      85.409257          16000 
    170000   3162.1105      299747.53      1022.1201      299695.38      298993.1       300554.1       61.946616     -1377.8757      2843.1241      6539.3491      3833.0054      10372.354      155629.07      42.692695      42.692695      85.385391          16000 
    171000   3194.8484      300523.06      1028.5306      301041.4       300975.31      299552.48     -723.187       -1943.8678     -506.79797      6607.0522      4004.4208      10611.473      155666.9       42.696154      42.696154      85.392308          16000 
    172000   3186.953       298073         1034.942       296381.15      299096.2       298741.64     -2473.4815      2134.5121     -3838.2789      6590.7241      3888.42        10479.144      155714.02      42.700462      42.700462      85.400924          16000 
    173000   3197.2798      299043.48      1041.3524      297651.78      300123.45      299355.19      1879.3235     -2647.7825      1361.8943      6612.0803      3932.2195      10544.3        155781.58      42.706636      42.706636      85.413273          16000 
    174000   3204.858       301841.39      1047.7593      301495.91      302265.74      301762.53      556.81042      787.88678     -2418.5557      6627.7523      3917.7155      10545.468      155602.88      42.690301      42.690301      85.380601          16000 
    175000   3222.8462      299408.61      1054.1697      299656.69      299427.83      299141.3       1905.724      -2399.8514      248.96661      6664.9525      4002.3729      10667.325      155731.01      42.702015      42.702015      85.40403           16000 
    176000   3208.4676      299125.22      1060.5818      300041.67      298579.71      298754.28      2496.0242     -1726.7056     -481.68492      6635.217       3889.6899      10524.907      155738.06      42.70266       42.70266       85.405319          16000 
    177000   3181.8233      296651.47      1066.9857      296041.44      297059.11      296853.84      4168.3483     -1255.4237     -914.91522      6580.1157      3945.9405      10526.056      155937.62      42.720891      42.720891      85.441782          16000 
    178000   3177.2676      298317.02      1073.3948      299242.59      297488.11      298220.36      1111.3182      1338.4933     -315.1608       6570.6945      3817.2176      10387.912      155743.09      42.703119      42.703119      85.406238          16000 
    179000   3213.0121      303820.46      1079.8041      303901.51      303507.05      304052.81     -1137.3437     -1688.9212      777.81547      6644.6152      3915.3919      10560.007      155488.75      42.67986       42.67986       85.359721          16000 
    180000   3176.0006      304742.02      1086.2124      305849.18      306004.75      302372.13     -1149.9161      1515.498       851.4735       6568.0742      4068.4276      10636.502      155456.24      42.676886      42.676886      85.353772          16000 
    181000   3203.0695      300871.37      1092.6253      301814.16      299098.11      301701.84      455.27228      1812.1648      3201.5923      6624.0536      3979.4065      10603.46       155612.9       42.691217      42.691217      85.382434          16000 
    182000   3177.2261      299040.77      1099.0335      299387.3       298470.24      299264.79      2465.4011     -2575.9293      1909.4971      6570.6085      3860.2427      10430.851      155673.02      42.696714      42.696714      85.393428          16000 
    183000   3204.8076      295060.44      1105.4444      295311.25      294010.94      295859.11      2601.7081     -234.16204      744.59805      6627.6482      3888.2559      10515.904      155916.37      42.718951      42.718951      85.437901          16000 
    184000   3247.7491      299265.56      1111.8551      300023.28      300650.52      297122.89     -395.5197      -677.33193      936.70951      6716.4524      3821.503       10537.955      155743.5       42.703157      42.703157      85.406313          16000 
    185000   3185.6909      302245.25      1118.2658      303552.88      300973.2       302209.68     -174.60424      1619.3705     -3425.6188      6588.114       3937.3118      10525.426      155545.19      42.685024      42.685024      85.370047          16000 
    186000   3206.5748      302918.19      1124.6764      303243.68      301636.53      303874.36     -1460.8362      151.80135      859.97563      6631.3026      3961.6832      10592.986      155504.59      42.68131       42.68131       85.36262           16000 
    187000   3173.6413      303989.46      1131.0882      302915.14      304869.01      304184.24     -888.66647     -3362.1827      1266.2335      6563.1951      3971.5066      10534.702      155473.62      42.678476      42.678476      85.356952          16000 
    188000   3229.594       296226.41      1137.4985      297582.3       295822.65      295274.29      1097.4912     -1655.3009     -2926.5545      6678.9071      3875.0641      10553.971      155946.94      42.721742      42.721742      85.443484          16000 
    189000   3185.5152      297386.74      1143.9091      297309.11      297867.1       296984.01      1064.2784      2615.5494     -1567.3381      6587.7507      3888.9364      10476.687      155864.1       42.714176      42.714176      85.428352          16000 
    190000   3184.7135      298614.27      1150.3209      297648.68      298140.77      300053.37     -705.05027     -1760.0847     -1861.2131      6586.0929      3975.3177      10561.411      155835.49      42.711563      42.711563      85.423125          16000 
    191000   3173.4836      302077.7       1156.7314      301868.71      301749.3       302615.08     -596.57475     -1294.7374      55.958391      6562.869       3921.7953      10484.664      155591.98      42.689304      42.689304      85.378607          16000 
    192000   3213.8549      303162.31      1163.1418      300804.72      303871.9       304810.31     -2070.4484     -181.40392     -921.09832      6646.3583      3926.2329      10572.591      155543.57      42.684876      42.684876      85.369751          16000 
    193000   3174.7136      304229.04      1169.5523      304367.28      303243.33      305076.52      265.47398      436.08434     -1665.8731      6565.4128      3895.1558      10460.569      155413.64      42.672987      42.672987      85.345975          16000 
    194000   3226.6537      299089.84      1175.9621      299949.46      298688.93      298631.13     -2085.9362     -925.26295      2192.1916      6672.8265      3872.8945      10545.721      155784.82      42.706933      42.706933      85.413866          16000 
    195000   3220.6661      298070.42      1182.3701      299297.16      295825.57      299088.54     -408.69849     -1024.6953      3248.0666      6660.4439      3891.3586      10551.803      155801.61      42.708467      42.708467      85.416933          16000 
    196000   3217.8366      300712.92      1188.778       302409.6       301174.58      298554.6       524.9843       163.36113      361.81326      6654.5925      3925.6869      10580.279      155690.44      42.698307      42.698307      85.396614          16000 
    197000   3196.7243      302423.07      1195.187       301891.97      303219.89      302157.36     -230.68108      53.822549      359.48933      6610.9315      3887.1682      10498.1        155615.13      42.69142       42.69142       85.382841          16000 
    198000   3197.6954      301569.25      1201.5947      301814.07      302123.36      300770.3      -807.29142     -1898.5669     -848.01979      6612.9398      3890.6804      10503.62       155590.18      42.689139      42.689139      85.378277          16000 
    199000   3197.136       300266.16      1208.0009      300051.37      300676.16      300070.95      291.26035     -1246.2184     -1863.1405      6611.7829      3946.0287      10557.812      155705.73      42.699704      42.699704      85.399408          16000 
    200000   3183.3936      303877.78      1214.4187      303536.76      303611.05      304485.52      679.1664      -1516.1135     -326.58236      6583.3632      3909.9559      10493.319      155427.28      42.674235      42.674235      85.34847           16000 
    201000   3234.1273      301443.66      1220.8256      300612.75      302983.81      300734.42     -2204.1892      535.99276     -1940.7271      6688.2822      3884.4443      10572.727      155648.3       42.694454      42.694454      85.388908          16000 
    202000   3213.6208      292543.1       1227.2329      292571.67      293111.3       291946.33      1637.5581      1266.8933     -993.48072      6645.874       3862.1651      10508.039      156164.81      42.741628      42.741628      85.483255          16000 
    203000   3161.9906      297362.18      1233.6421      297083.87      297316.38      297686.28      514.79464     -1828.8349     -1075.2224      6539.101       3925.7427      10464.844      155870.46      42.714757      42.714757      85.429515          16000 
    204000   3239.2931      298806.67      1240.0511      300167.15      297490.68      298762.19      2683.1412      3934.7005      581.0387       6698.9652      3919.1287      10618.094      155781.01      42.706584      42.706584      85.413168          16000 
    205000   3239.4722      300058.16      1246.4584      299057.77      301121.92      299994.78     -236.37205     -1200.3086      435.37937      6699.3355      3903.725       10603.06       155669.35      42.696378      42.696378      85.392757          16000 
    206000   3147.7378      300755.53      1252.8709      299204.84      300257.48      302804.26     -280.29455      736.67135     -913.66407      6509.6259      3918.0291      10427.655      155599.69      42.690009      42.690009      85.380017          16000 
    207000   3205.0752      298691.48      1259.2798      298950.34      297621.6       299502.52     -1187.8032      1547.6968      435.95588      6628.2014      3909.2803      10537.482      155779.07      42.706408      42.706408      85.412815          16000 
    208000   3225.3624      299200.13      1265.6899      299147.78      299992.03      298460.58      111.16637     -218.73633      3284.171       6670.1561      3860.9153      10531.071      155768.09      42.705404      42.705404      85.410808          16000 
    209000   3175.5746      299134.46      1272.1034      298366.69      300686.6       298350.07     -829.52289      340.35604      69.263194      6567.1933      3939.0917      10506.285      155758.47      42.704525      42.704525      85.409049          16000 
    210000   3169.8048      298007.93      1278.514       298127.95      298812.9       297082.95     -718.21531     -342.17336      2563.2411      6555.2612      3982.3265      10537.588      155834.11      42.711436      42.711436      85.422872          16000 
    211000   3191.7902      299153.92      1284.9279      297490.07      299827.71      300143.98     -527.0583      -306.89674     -806.37547      6600.7277      3873.7521      10474.48       155679.45      42.697301      42.697301      85.394603          16000 
    212000   3198.7002      303217.78      1291.3396      302603.13      304013.14      303037.08      2419.6502     -4979.9448     -2090.6053      6615.0177      3918.1365      10533.154      155511.81      42.681971      42.681971      85.363942          16000 
    213000   3201.1833      302673.06      1297.7484      302539.25      303423.42      302056.52     -3055.4337     -613.22154     -393.94321      6620.1528      3948.799       10568.952      155554.83      42.685906      42.685906      85.371811          16000 
    214000   3225.9409      300785.25      1304.1514      300120.24      301506.6       300728.9      -722.52311     -744.22667     -812.56266      6671.3524      3878.5094      10549.862      155655.6       42.695121      42.695121      85.390243          16000 
    215000   3168.5007      295875.16      1310.5466      295497.43      296899.73      295228.3       2706.4756      887.05713      1427.5864      6552.5642      3790.9129      10343.477      155898.69      42.717336      42.717336      85.434672          16000 
    216000   3169.0988      296291.78      1316.9467      296040.53      295735.23      297099.59     -1876.5317     -771.76028      3338.4531      6553.801       3880.3605      10434.162      155937.62      42.720891      42.720891      85.441783          16000 
    217000   3188.7451      300798.63      1323.3527      299878.4       301452.48      301065.01      3293.1149     -36.588419      2344.3756      6594.4303      3972.475       10566.905      155723.73      42.701349      42.701349      85.402698          16000 
    218000   3194.3789      303055.1       1329.7613      302459.68      302914.99      303790.64     -757.57327      4553.5577      130.6688       6606.0811      3947.9128      10553.994      155562.7       42.686626      42.686626      85.373252          16000 
    219000   3212.43        300129.45      1336.1736      300002.24      300698.08      299688.02     -615.80143      2009.8378     -1634.5838      6643.4115      3974.815       10618.227      155752.62      42.70399       42.70399       85.40798           16000 
    220000   3200.2534      300340.08      1342.5865      299260.19      301014.91      300745.15      311.51709      1349.0692      597.62965      6618.2298      3870.01        10488.24       155688.51      42.69813       42.69813       85.39626           16000 
    221000   3206.879       298459.59      1348.9938      298289.54      298119.84      298969.39     -907.63536     -773.79168     -250.9057       6631.9318      3932.2739      10564.206      155761.81      42.70483       42.70483       85.40966           16000 
    222000   3175.6773      305700.4       1355.4057      306524.69      305415.35      305161.16     -2670.4836      325.6663       1406.1474      6567.4056      3918.9651      10486.371      155416.83      42.673279      42.673279      85.346558          16000 
    223000   3202.568       303817.87      1361.8175      302515.41      304020.01      304918.19      1112.2714     -350.80835      1311.0703      6623.0165      3988.5077      10611.524      155553.61      42.685794      42.685794      85.371588          16000 
    224000   3186.4713      299291.67      1368.2278      299566.86      299662.77      298645.39     -2136.2171     -301.91059     -1388.8015      6589.7281      3889.063       10478.791      155690.08      42.698273      42.698273      85.396546          16000 
    225000   3195.4425      298310.54      1374.6394      297583.95      299348.13      297999.56     -217.41888      1647.0877     -409.54427      6608.2807      3956.3419      10564.623      155819.39      42.710091      42.710091      85.420183          16000 
    226000   3128.9879      298417.78      1381.0517      297309.71      298650.62      299293.01      149.29132     -1370.324      -1692.1496      6470.8505      3906.2081      10377.059      155669.68      42.696409      42.696409      85.392817          16000 
    227000   3215.5351      299855.07      1387.4636      299867.94      300915.89      298781.38      1988.1981     -763.21391      1748.0864      6649.8329      3914.7203      10564.553      155732.71      42.702171      42.702171      85.404341          16000 
    228000   3231.6555      303381.74      1393.8777      303842.16      303831.45      302471.62     -1617.1861     -1404.6305      600.05297      6683.1703      3939.411       10622.581      155577.9       42.688016      42.688016      85.376031          16000 
    229000   3180.557       305240.65      1400.2874      305290.71      304331.76      306099.5      -1069.03       -1156.4241      4405.1675      6577.497       4003.2437      10580.741      155301.15      42.662689      42.662689      85.325377          16000 
    230000   3225.3091      298680.05      1406.6981      298646.91      298550.17      298843.08     -114.45599     -677.37411     -744.01036      6670.0458      3967.7299      10637.776      155814.42      42.709637      42.709637      85.419275          16000 
    231000   3186.2097      298233.04      1413.1086      298473.61      298484.1       297741.41      888.34715      2369.686       2850.0894      6589.187       3898.1389      10487.326      155785.46      42.706991      42.706991      85.413983          16000 
    232000   3216.3872      300423.4       1419.5208      300931.85      300811.41      299526.95     -458.93322     -2156.9225      475.59912      6651.5951      3888.4238      10540.019      155731.7       42.702078      42.702078      85.404157          16000 
    233000   3189.0178      302063.89      1425.9309      303303.46      301698.15      301190.05      859.04894      948.19167     -2496.6253      6594.9942      3897.32        10492.314      155558.46      42.686238      42.686238      85.372475          16000 
    234000   3214.0105      300941.41      1432.3339      299617.49      301508.52      301698.22      245.46541     -493.47433      4415.3212      6646.68        3936.383       10583.063      155697.47      42.698949      42.698949      85.397898          16000 
    235000   3176.205       298759.6       1438.7441      298150.91      298531.08      299596.82     -2130.6741     -1409.5783      2970.7022      6568.497       3818.9077      10387.405      155673.29      42.696739      42.696739      85.393477          16000 
    236000   3234.1693      297029.97      1445.1562      297593.27      295471.19      298025.45     -2652.0344      1651.2838     -2515.563       6688.3691      3867.3227      10555.692      155857.48      42.713572      42.713572      85.427143          16000 
    237000   3195.8713      295703.09      1451.5695      294794.3       296315.3       295999.68     -988.17099      138.89839     -264.34353      6609.1675      3860.8335      10470.001      155881.46      42.715762      42.715762      85.431524          16000 
    238000   3208.4002      295951.48      1457.9808      296829.97      295421.98      295602.5       2530.7401      242.10937      1605.9476      6635.0778      3871.3239      10506.402      155986.67      42.72537       42.72537       85.45074           16000 
    239000   3210.9402      302985.08      1464.3946      303273.67      302285.54      303396.01     -807.27358      2480.0642      313.77049      6640.3305      3919.9898      10560.32       155606.3       42.690613      42.690613      85.381227          16000 
    240000   3183.849       302734.05      1470.8021      303185.19      302593.89      302423.07     -419.00237     -2615.0665      362.16868      6584.3051      3896.6507      10480.956      155536.35      42.684215      42.684215      85.36843           16000 
    241000   3211.0581      298911.9       1477.2092      299342.74      297834.41      299558.55     -68.603037     -307.29932     -2844.076       6640.5744      3943.899       10584.473      155787.8       42.707205      42.707205      85.41441           16000 
    242000   3156.9297      296470.74      1483.6122      296991.44      296775.07      295645.7      -1605.9299      1778.3844      1199.9486      6528.635       3898.6159      10427.251      155829.37      42.711003      42.711003      85.422006          16000 
    243000   3241.7466      297627.21      1490.011       297735.91      297818.8       297326.92      2198.0974     -612.05854     -291.43552      6704.0392      3808.7951      10512.834      155822.58      42.710383      42.710383      85.420765          16000 
    244000   3197.8115      304851.67      1496.4101      304269.5       305727.28      304558.22     -889.45017     -319.86283      586.3037       6613.1799      3951.3389      10564.519      155364.41      42.668481      42.668481      85.336962          16000 
    245000   3240.7672      304421.4       1502.8092      304578.46      304041.07      304644.69      590.86506     -2302.8499      2377.7575      6702.0136      3914.1373      10616.151      155392.1       42.671015      42.671015      85.342031          16000 
    246000   3189.5009      300072.02      1509.217       299635.76      300914.14      299666.17      133.73931      317.40266     -22.305034      6595.9933      3931.7494      10527.743      155590.63      42.68918       42.68918       85.37836           16000 
    247000   3212.7444      297949.2       1515.626       298470.48      296347.24      299029.9       746.54984     -861.99678      157.79783      6644.0616      3826.0765      10470.138      155753.57      42.704077      42.704077      85.408154          16000 
    248000   3225.5328      297373.29      1522.0385      299069.3       296432.58      296618        -317.58703     -1799.9508     -662.7444       6670.5085      3943.4508      10613.959      155849.7       42.712861      42.712861      85.425722          16000 
    249000   3161.5725      299156.07      1528.4507      298034.97      298236.23      301197.02     -737.26373     -1060.9731      2595.4993      6538.2364      3940.4116      10478.648      155728.81      42.701814      42.701814      85.403629          16000 
    250000   3224.872       301278.19      1534.8628      301701.23      301640.4       300492.92      103.64725     -235.96396     -3825.4028      6669.1419      3922.2781      10591.42       155599.75      42.690014      42.690014      85.380028          16000 
    251000   3199.7534      302303.91      1541.2739      301266.92      302323.1       303321.71     -683.04273     -1758.8397      1206.1598      6617.1959      3854.6171      10471.813      155517.15      42.682459      42.682459      85.364917          16000 
    252000   3225.7441      299005.32      1547.6825      299172.32      298938.66      298904.99      1207.4588      1401.4024     -1171.8234      6670.9454      3908.3496      10579.295      155769.18      42.705503      42.705503      85.411006          16000 
    253000   3190.6656      294526.46      1554.0911      294492.58      292809.97      296276.81     -1188.7858      1345.0346      430.38886      6598.4019      3788.2049      10386.607      155953.07      42.722302      42.722302      85.444605          16000 
    254000   3180.6397      297053.2       1560.4961      296216.91      296147.17      298795.53      1405.5778     -3205.7118      168.03925      6577.668       3914.8095      10492.477      155891.1       42.716642      42.716642      85.433285          16000 
    255000   3222.0611      303213.72      1566.9045      302979.49      303776.66      302885.02     -1868.3231      1020.2055      279.02236      6663.3288      3881.4312      10544.76       155487.47      42.679744      42.679744      85.359487          16000 
    256000   3213.1444      300042.84      1573.3159      300867.48      300692.95      298568.08      1210.8272     -1011.8694     -686.44188      6644.8889      3960.7773      10605.666      155715.32      42.700581      42.700581      85.401162          16000 
    257000   3185.5151      301989.88      1579.7282      300944.13      302057.05      302968.45     -1626.5286     -1263.6118     -19.379489      6587.7505      3910.4337      10498.184      155594.29      42.689515      42.689515      85.37903           16000 
    258000   3203.4583      300799.74      1586.1399      300375.97      302024.46      299998.79      568.34289     -2862.9712      194.15849      6624.8578      3939.7414      10564.599      155608.75      42.690838      42.690838      85.381675          16000 
    259000   3183.2907      301452.83      1592.5531      301903.9       302894.83      299559.76      3979.3566      1312.8903     -143.4649       6583.1503      3922.9461      10506.096      155644.43      42.6941        42.6941        85.3882            16000 
    260000   3211.3014      295984.52      1598.9621      297232.12      295423.3       295298.16     -258.70059     -966.56581      242.13278      6641.0775      3853.3981      10494.476      155960.64      42.722993      42.722993      85.445986          16000 
    261000   3183.4404      300156.1       1605.373       300998.17      300514.9       298955.22     -573.70263     -319.32041      2307.33        6583.4601      3874.2688      10457.729      155697.81      42.69898       42.69898       85.39796           16000 
    262000   3161.0776      301485.92      1611.7808      301066.82      301714.73      301676.2       2092.2764      545.64216      461.26532      6537.2131      3943.2381      10480.451      155655.12      42.695077      42.695077      85.390155          16000 
    263000   3163.0873      300797.14      1618.1827      298588.1       301613.94      302189.38      2849.6541      1361.9127      2319.9055      6541.3691      4016.9794      10558.348      155728.86      42.701818      42.701818      85.403636          16000 
    264000   3204.1518      297726.43      1624.5857      299349.21      296460.86      297369.23      1993.3189      1345.302      -3117.1533      6626.2919      3914.9559      10541.248      155749.39      42.703695      42.703695      85.407389          16000 
    265000   3150.9336      300463.49      1630.9884      299405.1       300569.48      301415.88     -812.78507     -2591.6316      306.35456      6516.2348      4005.0899      10521.325      155667.33      42.696194      42.696194      85.392388          16000 
    266000   3198.0499      300696.73      1637.397       300175.31      301295.5       300619.37     -3473.2552      771.07268     -689.65768      6613.6729      3941.0188      10554.692      155660.84      42.6956        42.6956        85.3912            16000 
    267000   3196.0844      303424.54      1643.8031      303852.04      303239.76      303181.82      1530.2032      2084.7168      338.64527      6609.6083      3922.8761      10532.484      155537.4       42.684311      42.684311      85.368623          16000 
    268000   3188.2969      306610.35      1650.2051      307893.67      305213         306724.37     -17.920386     -1904.5047      620.50598      6593.5033      4007.1483      10600.652      155396.13      42.671385      42.671385      85.342769          16000 
    269000   3197.7087      299661.61      1656.6061      300292.41      299323.08      299369.33      2790.6412     -702.50436     -1058.4237      6612.9674      3937.3383      10550.306      155677.81      42.697152      42.697152      85.394304          16000 
    270000   3171.2091      299265.62      1663.0162      300110.81      298320.11      299365.95     -1283.7701     -2362.8918      1621.7325      6558.1652      3909.4837      10467.649      155721.47      42.701143      42.701143      85.402286          16000 
    271000   3195.0257      299033.16      1669.4216      298164.14      300401.53      298533.82     -2234.1154      4122.692       578.60236      6607.4188      3931.3195      10538.738      155780.31      42.706521      42.706521      85.413041          16000 
    272000   3186.0443      301467.92      1675.8225      301138.72      301721.09      301543.96      85.566888     -1414.4891      611.81221      6588.845       3861.1391      10449.984      155545.19      42.685024      42.685024      85.370049          16000 
    273000   3193.7187      302963.7       1682.2201      302956.71      302132.43      303801.94      676.51114      1013.4391     -1664.7848      6604.7159      3995.0172      10599.733      155553.44      42.685779      42.685779      85.371558          16000 
    274000   3214.9833      300677.34      1688.6087      299792.75      301126.7       301112.57      2300.1877      4807.0521     -2597.6142      6648.6917      3833.3352      10482.027      155605.04      42.690498      42.690498      85.380997          16000 
    275000   3195.9757      295380.56      1695.0055      294446.88      294956.8       296738.01     -2370.264       653.99049     -1641.0301      6609.3834      3876.9924      10486.376      155896.7       42.717154      42.717154      85.434308          16000 
    276000   3210.0729      297601.17      1701.4038      297930.46      297226.09      297646.97     -1666.4517      25.382545      3154.3666      6638.5368      3850.6869      10489.224      155810.26      42.709257      42.709257      85.418515          16000 
    277000   3212.3316      300879.24      1707.8034      299831.87      300661.53      302144.33      1288.4752     -2406.5502      2083.725       6643.2079      3948.0172      10591.225      155665.69      42.696044      42.696044      85.392088          16000 
    278000   3185.6132      301722.37      1714.2064      304586.85      299989.06      300591.2      -1604.6385     -214.3301       2784.1675      6587.9535      3906.5127      10494.466      155528.41      42.683489      42.683489      85.366977          16000 
    279000   3210.5087      305606.32      1720.6073      305034.91      305331.01      306453.06     -3024.8709      1540.2547      1634.8247      6639.4381      3987.6359      10627.074      155377.64      42.669692      42.669692      85.339383          16000 
    280000   3224.3514      299326.14      1727.0071      300460.89      298259.14      299258.4       1684.5251     -290.75172     -1323.2192      6668.0654      3888.2857      10556.351      155693.44      42.698581      42.698581      85.397161          16000 
    281000   3176.0876      297957.2       1733.4061      297796.24      297064.23      299011.13     -889.65677      801.63777      2231.1164      6568.2542      3889.0333      10457.288      155773.51      42.7059        42.7059        85.411799          16000 
    282000   3200.6798      299646.57      1739.8002      298132.18      299684.39      301123.14      915.39374      2446.2269      1549.5606      6619.1117      3944.5064      10563.618      155749.89      42.70374       42.70374       85.40748           16000 
    283000   3176.7226      303684.2       1746.1968      302760.52      306055.08      302237        -243.1805       1924.1793     -18.763213      6569.5674      3933.7168      10503.284      155549.93      42.685458      42.685458      85.370916          16000 
    284000   3191.3093      301566.45      1752.5967      301794.22      302305.33      300599.81     -454.35969      1893.3275     -1199.0994      6599.7331      3918.6687      10518.402      155585.67      42.688727      42.688727      85.377453          16000 
    285000   3189.6856      299536.17      1758.9949      299455.3       298942.95      300210.27      2402.5725     -1807.7896     -9.8742921      6596.3752      4016.5677      10612.943      155765.36      42.705154      42.705154      85.410308          16000 
[...]
   3930000   3491.3522      299719.7       6720.1216      301771.66      301786.18      295601.24     -2324.0453     -1024.378       7.3548353      7220.2317      5125.159       12345.391      156490.89      42.713801      42.713801      85.773399          16000 
   3931000   3493.9535      301150.1       6727.336       305363.83      303703.64      294382.84     -2640.8624     -764.81718     -1072.4201      7225.6113      5123.106       12348.717      156469.88      42.711889      42.711889      85.769561          16000 
   3932000   3507.7973      298558.26      6734.5538      301358.84      300127.42      294188.51     -2773.3197      2073.6333      128.06712      7254.2407      5079.2755      12333.516      156546.36      42.718847      42.718847      85.783533          16000 
   3933000   3513.2018      293054.08      6741.7701      297152.54      295598.32      286411.37      1621.4506     -1361.7434      762.96283      7265.4175      5015.4315      12280.849      156828.37      42.744484      42.744484      85.835014          16000 
   3934000   3477.7208      297328.13      6748.9829      302022.13      298821.96      291140.31     -3363.837      -2293.8236      1121.7333      7192.0415      5112.3372      12304.379      156701.26      42.732932      42.732932      85.811817          16000 
   3935000   3510.984       300890.57      6756.1985      304388.08      303394.18      294889.46     -698.19475      192.4481       712.14793      7260.8311      5089.8937      12350.725      156450.33      42.71011       42.71011       85.765988          16000 
   3936000   3491.6762      301586.94      6763.4125      305527.9       301580.61      297652.31      752.8357      -1951.2275     -669.88974      7220.9018      5141.1841      12362.086      156389.66      42.704588      42.704588      85.7549            16000 
   3937000   3483.8146      302393.13      6770.6232      303481.08      305248.75      298449.58      2315.0899     -3904.4317     -3643.217       7204.6437      5160.8768      12365.521      156370.8       42.702872      42.702872      85.751454          16000 
   3938000   3477.3292      299360.2       6777.8394      302373.47      301128.82      294578.31      1405.293      -286.82393     -1092.3775      7191.2318      5161.182       12352.414      156438.59      42.709042      42.709042      85.763843          16000 
   3939000   3494.9427      298894.16      6785.0544      299578.29      301898.55      295205.63      1316.9062     -4.1844268     -3808.7749      7227.6571      5100.2121      12327.869      156570.27      42.721022      42.721022      85.7879            16000 
   3940000   3483.1663      298503.45      6792.2692      301190.6       301393.63      292926.12     -4461.7051     -2044.8812      824.15945      7203.303       5137.0939      12340.397      156501.15      42.714734      42.714734      85.775274          16000 
   3941000   3529.9309      301510.89      6799.483       304834.32      303304.37      296393.98     -859.23414     -836.88597     -1187.055       7300.0138      5059.027       12359.041      156396.21      42.705185      42.705185      85.756098          16000 
   3942000   3480.2014      307044.65      6806.6995      310984.51      309772.9       300376.54      1882.6722     -1458.6473      72.717355      7197.1716      5209.3402      12406.512      156143.37      42.682159      42.682159      85.70986           16000 
   3943000   3500.9738      303708.96      6813.9145      306605.79      304692.51      299828.58     -1012.4984      382.58615     -2207.6985      7240.1295      5129.9608      12370.09       156334.53      42.69957       42.69957       85.744823          16000 
   3944000   3478.8728      300310.98      6821.1336      301840.43      303355.02      295737.48      407.91457     -1674.1972      163.83627      7194.4239      5146.1238      12340.548      156490.66      42.71378       42.71378       85.773357          16000 
   3945000   3512.9829      297580.28      6828.3462      299280.34      299768.86      293691.65     -1785.2143     -1071.4203     -2981.6404      7264.9647      5041.3731      12306.338      156667.52      42.729865      42.729865      85.805657          16000 
   3946000   3472.8869      296771.75      6835.5599      300099.21      298161.84      292054.19     -1803.3402      491.65333      1701.1283      7182.0448      5127.2564      12309.301      156651.65      42.728422      42.728422      85.80276           16000 
   3947000   3490.4346      297968.58      6842.7667      299083.06      301148.58      293674.1       78.5138        999.76747     -1693.8093      7218.334       5093.3611      12311.695      156636.59      42.727053      42.727053      85.800011          16000 
   3948000   3531.3844      304837.47      6849.9687      305280.41      308626.43      300605.56     -1165.5075      4364.0657      1881.3281      7303.0196      5079.9009      12382.921      156255.08      42.692335      42.692335      85.730295          16000 
   3949000   3511.8658      304929.19      6857.1728      307940.3       306607.56      300239.71      1955.1498     -566.17827     -132.67943      7262.6546      5133.5039      12396.159      156184.61      42.685917      42.685917      85.717406          16000 
   3950000   3525.4021      301170.94      6864.381       304989.61      301888         296635.2      -3253.9271     -1374.7272      2803.4803      7290.648       5059.6547      12350.303      156425.63      42.707863      42.707863      85.761475          16000 
   3951000   3499.1245      301138.08      6871.5861      304684.95      303863.61      294865.67     -1258.0276     -2313.4399     -434.5335       7236.3052      5106.7129      12343.018      156463.48      42.711307      42.711307      85.768392          16000 
   3952000   3498.0923      300069.2       6878.7925      302886.28      301440.14      295881.18     -408.38053     -444.55412     -2228.9751      7234.1705      5083.7103      12317.881      156598.41      42.723582      42.723582      85.79304           16000 
   3953000   3513.8791      294401         6886.0036      296002.97      296839.11      290360.92     -126.31111     -1599.5433     -691.03189      7266.8181      5000.8474      12267.665      156867.89      42.748074      42.748074      85.842223          16000 
   3954000   3499.7435      295340.58      6893.2122      297501.38      297590.3       290930.05     -4225.3378      667.53874     -720.76197      7237.5854      5059.1335      12296.719      156708.68      42.733607      42.733607      85.813171          16000 
   3955000   3521.3551      302307.52      6900.4239      305234.19      304627.8       297060.58     -1814.9248     -552.25232      317.7699       7282.2788      5072.3139      12354.593      156395.56      42.705125      42.705125      85.755978          16000 
   3956000   3510.6575      302265.93      6907.6331      304639.4       305575.74      296582.64     -1378.0475      1451.7508      1832.9392      7260.1558      5090.1442      12350.3        156415.97      42.706983      42.706983      85.759709          16000 
   3957000   3480.7689      299835.18      6914.8436      301346.18      302843.34      295316.01     -880.85972      1096.949       427.12517      7198.3451      5142.7643      12341.109      156462.6       42.711227      42.711227      85.768231          16000 
   3958000   3473.0467      301372.5       6922.0586      304599.99      303614.71      295902.8      -203.12177     -1123.9293      1802.432       7182.3754      5167.0684      12349.444      156416.1       42.706995      42.706995      85.759733          16000 
   3959000   3502.7792      297798.38      6929.2685      300856.99      300766.85      291771.32      1044.2205      1034.8945      2920.7719      7243.8632      5068.1807      12312.044      156614.21      42.725018      42.725018      85.795924          16000 
   3960000   3510.0422      293876.37      6936.481       295150.83      295543.67      290934.6      -734.67493      2357.4347      2520.3453      7258.8832      5008.5631      12267.446      156848.55      42.746317      42.746317      85.838695          16000 
   3961000   3491.5611      297705.99      6943.6941      300096.58      300756.57      292264.82     -329.37112     -844.91569      599.76304      7220.6638      5097.7286      12318.392      156571.87      42.721168      42.721168      85.788193          16000 
   3962000   3526.3105      301250.25      6950.9064      304642.1       302606.15      296502.48      1977.6246      330.2955      -215.76936      7292.5266      5050.2481      12342.775      156439.13      42.709091      42.709091      85.763941          16000 
   3963000   3518.1343      298453.26      6958.1154      303237.2       298160.2       293962.36     -1555.7112      698.86291     -1298.9306      7275.6179      5037.8568      12313.475      156590.58      42.722869      42.722869      85.791609          16000 
   3964000   3483.4691      302046.98      6965.3277      303395.76      307821.06      294924.12     -522.16548      1166.2433      2706.3867      7203.9293      5138.9315      12342.861      156432.4       42.708479      42.708479      85.762713          16000 
   3965000   3500.5812      301669.3       6972.5376      305837.99      302841.31      296328.61     -402.51763     -4169.1471     -4150.1364      7239.3176      5113.4153      12352.733      156375.77      42.703325      42.703325      85.752362          16000 
   3966000   3489.6631      300080.09      6979.7516      303601.08      301420.52      295218.67      1885.4365     -289.78177     -1749.6182      7216.7386      5103.6945      12320.433      156548.77      42.719066      42.719066      85.783973          16000 
   3967000   3471.166       298392.04      6986.9598      301737.08      300211.8       293227.25      1586.1184     -3041.0066     -1482.4355      7178.4861      5127.4076      12305.894      156625.99      42.726089      42.726089      85.798075          16000 
   3968000   3527.9576      298913.77      6994.1758      301331.33      300724.21      294685.78      1819.0941     -2648.1658      1207.9212      7295.9329      5035.3054      12331.238      156488.57      42.71359       42.71359       85.772975          16000 
   3969000   3465.5306      301261.91      7001.3924      305335.77      301832.6       296617.35      142.45062      2194.7118     -2093.6051      7166.8318      5172.2959      12339.128      156444.9       42.709616      42.709616      85.764996          16000 
   3970000   3481.3819      302607.7       7008.6063      304868.5       304568.62      298385.99     -686.13724     -2292.1836     -2783.3052      7199.6128      5147.7348      12347.348      156401.67      42.705682      42.705682      85.757096          16000 
   3971000   3498.3084      300402.7       7015.8182      303243.36      303924.13      294040.62      2273.0243     -308.76897      3087.3442      7234.6174      5107.9026      12342.52       156425.8       42.707878      42.707878      85.761506          16000 
   3972000   3469.9338      300145.8       7023.0315      302065.34      301754.45      296617.61     -2229.954      -2328.5948     -642.14372      7175.9378      5156.1298      12332.068      156479.73      42.712786      42.712786      85.771361          16000 
   3973000   3501.4537      295171.97      7030.2437      298161.99      297981.62      289372.31      165.32043     -472.13677     -1656.1541      7241.1221      5040.2682      12281.39       156745.07      42.736914      42.736914      85.819813          16000 
   3974000   3519.0752      296113.1       7037.459       297432.37      297812.29      293094.64      318.01432     -97.67668       480.89438      7277.5638      5012.896       12290.46       156693.5       42.732226      42.732226      85.8104            16000 
   3975000   3480.3454      300154.49      7044.6771      301326.48      304318.77      294818.22      2107.7813     -1918.242      -549.09359      7197.4693      5129.1297      12326.599      156498.03      42.71445       42.71445       85.774703          16000 
   3976000   3471.8376      302264.25      7051.8923      303724.05      305808.58      297260.12      1413.1006      150.59769      528.64165      7179.8749      5162.0458      12341.921      156416.34      42.707017      42.707017      85.759778          16000 
   3977000   3530.8159      301493.34      7059.1076      304535.9       302372.17      297571.94     -3616.6554     -783.73572     -1792.1255      7301.8439      5051.6228      12353.467      156350.72      42.701044      42.701044      85.747783          16000 
   3978000   3492.0568      299925.46      7066.322       301616.26      304065.71      294094.41      1444.1991      451.134       -1086.2757      7221.6889      5110.3084      12331.997      156465         42.711445      42.711445      85.768669          16000 
   3979000   3504.6425      296220.08      7073.542       299074.29      298316.22      291269.74     -1407.7239     -1271.6571     -2110.7677      7247.7165      5043.4165      12291.133      156683.91      42.731355      42.731355      85.808651          16000 
   3980000   3500.4302      297912.03      7080.7611      302232.17      300659.85      290844.06     -961.79282     -1074.8387      2415.6661      7239.0053      5069.8576      12308.863      156587.2       42.722562      42.722562      85.790993          16000 
   3981000   3494.8017      300664.59      7087.9779      302628.26      303860.31      295505.2      -1239.9778      25.39814       1903.314       7227.3654      5111.4828      12338.848      156422.2       42.707551      42.707551      85.760848          16000 
   3982000   3488.0393      304159.68      7095.2029      306164.07      307541.86      298773.12      561.89791      3147.1826      1021.8762      7213.3805      5150.7188      12364.099      156287.86      42.695321      42.695321      85.73629           16000 
   3983000   3530.5425      305376.23      7102.4301      305177         310300.12      300651.55      1339.2183     -1380.9341     -2100.0749      7301.2787      5082.7276      12384.006      156180.28      42.685522      42.685522      85.716613          16000 
   3984000   3481.7652      300227.51      7109.65        302400.27      302784.6       295497.67      1714.8233      536.74482      901.50553      7200.4056      5130.5313      12330.937      156462.22      42.711193      42.711193      85.768162          16000 
   3985000   3471.7295      297323.25      7116.867       299196.19      302493.99      290279.55     -1179.5256     -1290.0418      1834.5321      7179.6514      5125.2613      12304.913      156597.36      42.723486      42.723486      85.792848          16000 
   3986000   3477.6777      296897.51      7124.0866      300382.35      298331.71      291978.47      466.00616      523.41374     -3790.6683      7191.9525      5085.7254      12277.678      156740.25      42.736477      42.736477      85.818935          16000 
   3987000   3503.8038      299522.07      7131.3072      303094.15      302747.73      292724.32     -1501.7573     -2498.6408      832.73396      7245.982       5072.2114      12318.193      156522.37      42.716664      42.716664      85.77915           16000 
   3988000   3515.178       303636.22      7138.5292      307124.17      305609.15      298175.34     -238.33777     -1008.2942      1380.9731      7269.5044      5098.0142      12367.519      156259.23      42.692713      42.692713      85.731054          16000 
   3989000   3493.8655      305400.14      7145.7482      307597.25      308637.02      299966.13      369.1791       2455.2488      843.23074      7225.4294      5161.7069      12387.136      156156.13      42.683322      42.683322      85.712194          16000 
   3990000   3500.4274      301351.53      7152.9682      304904.71      303214.97      295934.91     -3714.2661     -3888.6149     -821.24833      7238.9995      5103.1621      12342.162      156391.8       42.704784      42.704784      85.755292          16000 
   3991000   3484.4863      299720.11      7160.1825      302046.19      301394.3       295719.84      1562.8213     -2108.1666     -1113.8747      7206.0328      5101.9754      12308.008      156572.71      42.721244      42.721244      85.788346          16000 
   3992000   3513.5764      298525.69      7167.3977      301030.3       301388.1       293158.67     -1472.0108      761.95476     -371.59311      7266.1921      5036.2363      12302.428      156600.21      42.723745      42.723745      85.793368          16000 
   3993000   3457.6569      300800.27      7174.6154      303624.36      303494.11      295282.36      243.42435      2392.4212      786.36344      7150.5488      5172.8692      12323.418      156485.98      42.713354      42.713354      85.772502          16000 
   3994000   3490.5639      301338.31      7181.831       304750.9       302700.79      296563.25     -2187.8713      754.52811      489.65719      7218.6016      5113.004       12331.606      156441.01      42.709262      42.709262      85.764285          16000 
   3995000   3504.6617      304157.92      7189.0485      307096.07      306840.56      298537.13     -687.56377     -404.24275     -464.93994      7247.7563      5111.8974      12359.654      156286.15      42.695165      42.695165      85.735976          16000 
   3996000   3480.8101      304246.97      7196.2682      307710.43      306224.86      298805.64     -5078.6171      471.1299      -1402.6002      7198.4303      5167.9007      12366.331      156246.86      42.691586      42.691586      85.728791          16000 
   3997000   3505.6746      301296.61      7203.4898      304599.01      303603.73      295687.08     -776.5627      -1111.5288      1339.8543      7249.851       5069.7427      12319.594      156492.63      42.713959      42.713959      85.773717          16000 
   3998000   3479.1778      297775.63      7210.7103      299396.37      301523.07      292407.45      3128.6662     -2679.3472     -3206.0422      7195.0547      5107.9468      12303.002      156578.75      42.721793      42.721793      85.789448          16000 
   3999000   3478.6001      296203.44      7217.9346      299170.66      299930.35      289509.32     -47.776028     -1146.2459      1932.5039      7193.8599      5085.3086      12279.169      156707.53      42.733502      42.733502      85.812962          16000 
   4000000   3492.952       297058.56      7225.1601      301351.97      298487.13      291336.58     -2329.5885     -2633.3409      1677.4789      7223.5402      5063.1589      12286.699      156664.52      42.729592      42.729592      85.80511           16000 
Loop time of 7225.16 on 8 procs for 1000000 steps with 16000 atoms

Performance: 5.979 ns/day, 4.014 hours/ns, 138.405 timesteps/s
59.4% CPU use with 1 MPI tasks x 8 OpenMP threads

MPI task timing breakdown:
Section |  min time  |  avg time  |  max time  |%varavg| %total
---------------------------------------------------------------
Pair    | 6920.4     | 6920.4     | 6920.4     |   0.0 | 95.78
Neigh   | 10.118     | 10.118     | 10.118     |   0.0 |  0.14
Comm    | 45.507     | 45.507     | 45.507     |   0.0 |  0.63
Output  | 1.5046     | 1.5046     | 1.5046     |   0.0 |  0.02
Modify  | 219.6      | 219.6      | 219.6      |   0.0 |  3.04
Other   |            | 27.99      |            |       |  0.39

Nlocal:          16000 ave       16000 max       16000 min
Histogram: 1 0 0 0 0 0 0 0 0 0
Nghost:          13581 ave       13581 max       13581 min
Histogram: 1 0 0 0 0 0 0 0 0 0
Neighs:              0 ave           0 max           0 min
Histogram: 1 0 0 0 0 0 0 0 0 0
FullNghs:    1.473e+06 ave   1.473e+06 max   1.473e+06 min
Histogram: 1 0 0 0 0 0 0 0 0 0

Total # of neighbors = 1472996
Ave neighs/atom = 92.06225
Neighbor list builds = 29201
Dangerous builds = 0
Total wall time: 7:19:55
