
atom_style atomic
units metal
boundary p p p
#atom_modify sort 0 0.0
newton on

read_data data.lammps
Reading data file ...
  triclinic box = (0 0 0) to (4.3790145 4.3790145 4.3790145) with tilt (-0 0 0)
  1 by 1 by 1 MPI processor grid
  reading atoms ...
  8 atoms
  read_data CPU = 0.001 seconds
replicate 10 10 20
Replicating atoms ...
  triclinic box = (0 0 0) to (43.790145 43.790145 87.58029) with tilt (-0 0 0)
  1 by 1 by 1 MPI processor grid
  16000 atoms
  replicate CPU = 0.006 seconds

### interactions

pair_style flare
pair_coeff * * lmp.flare
Reading potential file lmp.flare with DATE: Thu

# compute unc all flare/std/atom L_inv_lmp.flare sparse_desc_lmp.flare
# compute MaxUnc all reduce max c_unc

mass 1 12.011000
mass 2 28.085000

thermo_style custom step temp press cpu pxx pyy pzz pxy pxz pyz ke pe etotal vol lx ly lz atoms    #c_MaxUnc
thermo 1000
timestep 0.0005
restart 100000 restart_*.dat

#################### Equilibrate at P and T_es ##############################
velocity all create $T 41928459 rot yes dist gaussian
velocity all create 3200 41928459 rot yes dist gaussian
fix mom all momentum 1000 linear 1 1 1 angular

fix 1 all npt temp $T $T $(100.0*dt) iso $P $P $(1000.0*dt)
fix 1 all npt temp 3200 $T $(100.0*dt) iso $P $P $(1000.0*dt)
fix 1 all npt temp 3200 3200 $(100.0*dt) iso $P $P $(1000.0*dt)
fix 1 all npt temp 3200 3200 0.050000000000000002776 iso $P $P $(1000.0*dt)
fix 1 all npt temp 3200 3200 0.050000000000000002776 iso 100000 $P $(1000.0*dt)
fix 1 all npt temp 3200 3200 0.050000000000000002776 iso 100000 100000 $(1000.0*dt)
fix 1 all npt temp 3200 3200 0.050000000000000002776 iso 100000 100000 0.5
dump 1 all custom 1000 1equil.bin id type x y z vx vy vz
run   10000 # report performance
Neighbor list info ...
  update every 1 steps, delay 10 steps, check yes
  max neighbors/atom: 2000, page size: 100000
  master list distance cutoff = 6
  ghost atom cutoff = 6
  binsize = 6, bins = 8 8 15
  1 neighbor lists, perpetual/occasional/extra = 1 0 0
  (1) pair flare/kk, perpetual
      attributes: full, newton on, kokkos_device
      pair build: full/bin/kk/device
      stencil: full/bin/3d
      bin: kk/device
Per MPI rank memory allocation (min/avg/max) = 15.9 | 15.9 | 15.9 Mbytes
   Step          Temp          Press           CPU            Pxx            Pyy            Pzz            Pxy            Pxz            Pyz           KinEng         PotEng         TotEng         Volume           Lx             Ly             Lz          Atoms   
         0   3200           60798.443      0              60479.755      60943.724      60971.85      -444.04471      199.99711     -502.05201      6617.7058     -4109.4047      2508.3011      167941.93      43.790145      43.790145      87.58029           16000 
      1000   3110.978       97787.456      6.4824497      98149.539      97672.655      97540.173      180.9657      -451.93379     -1006.3295      6433.6053      3245.2356      9678.8409      169750.95      43.946815      43.946815      87.893631          16000 
      2000   3209.0001      98330.676      12.934269      96950.791      97897.083      100144.15     -1088.4169     -1791.0287      731.17338      6636.3183      3366.7323      10003.051      170076.26      43.97487       43.97487       87.94974           16000 
      3000   3168.2621      99683.709      19.393915      98277.079      99443.484      101330.56      398.64437      71.983561     -1528.7395      6552.0707      3144.349       9696.4197      169641.45      43.937363      43.937363      87.874727          16000 
      4000   3277.7263      99943.312      25.860738      98806.916      100243.82      100779.21     -1849.6128      400.39556      498.20624      6778.4463      3205.4922      9983.9385      169939.44      43.963075      43.963075      87.92615           16000 
      5000   3152.4546      102200.96      32.313426      101702.42      101779.76      103120.71      913.92241      2397.9565     -915.46642      6519.3804      3245.4368      9764.8172      169599.65      43.933755      43.933755      87.867509          16000 
      6000   3216.9047      99557.363      38.76465       98479.719      99487.381      100704.99      1123.4495      460.88469     -795.68741      6652.6652      3220.8311      9873.4964      169784.49      43.949709      43.949709      87.899419          16000 
      7000   3177.0986      100458.49      45.212271      100549.22      100937.29      99888.942      350.58744      850.04017     -2980.7341      6570.3449      3357.5893      9927.9342      169807.58      43.951702      43.951702      87.903403          16000 
      8000   3174.7181      102591.02      51.663574      103065.15      101972.69      102735.22      627.10081     -1759.4675     -1382.7047      6565.4219      3242.7743      9808.1962      169572.98      43.931451      43.931451      87.862902          16000 
      9000   3195.8293      104973.54      58.112479      104326.29      105650.69      104943.64      1162.7343      791.26727     -375.20591      6609.0806      3347.6364      9956.717       169558.92      43.930237      43.930237      87.860475          16000 
     10000   3190.7004      105220.48      64.56933       105197.27      105366.12      105098.05     -1399.3418      423.70825      2808.936       6598.4738      3219.8024      9818.2763      169413.21      43.91765       43.91765       87.8353            16000 
Loop time of 64.5694 on 8 procs for 10000 steps with 16000 atoms

Performance: 6.690 ns/day, 3.587 hours/ns, 154.872 timesteps/s
62.7% CPU use with 1 MPI tasks x 8 OpenMP threads

MPI task timing breakdown:
Section |  min time  |  avg time  |  max time  |%varavg| %total
---------------------------------------------------------------
Pair    | 61.232     | 61.232     | 61.232     |   0.0 | 94.83
Neigh   | 0.090468   | 0.090468   | 0.090468   |   0.0 |  0.14
Comm    | 0.49395    | 0.49395    | 0.49395    |   0.0 |  0.76
Output  | 0.024721   | 0.024721   | 0.024721   |   0.0 |  0.04
Modify  | 2.4434     | 2.4434     | 2.4434     |   0.0 |  3.78
Other   |            | 0.2847     |            |       |  0.44

Nlocal:          16000 ave       16000 max       16000 min
Histogram: 1 0 0 0 0 0 0 0 0 0
Nghost:          13608 ave       13608 max       13608 min
Histogram: 1 0 0 0 0 0 0 0 0 0
Neighs:              0 ave           0 max           0 min
Histogram: 1 0 0 0 0 0 0 0 0 0
FullNghs:  1.38379e+06 ave 1.38379e+06 max 1.38379e+06 min
Histogram: 1 0 0 0 0 0 0 0 0 0

Total # of neighbors = 1383788
Ave neighs/atom = 86.48675
Neighbor list builds = 277
Dangerous builds = 0
run  990000
Per MPI rank memory allocation (min/avg/max) = 16.08 | 16.08 | 16.08 Mbytes
   Step          Temp          Press           CPU            Pxx            Pyy            Pzz            Pxy            Pxz            Pyz           KinEng         PotEng         TotEng         Volume           Lx             Ly             Lz          Atoms   
     10000   3190.7004      105220.48      0              105197.27      105366.12      105098.05     -1399.3418      423.70825      2808.936       6598.4738      3219.8024      9818.2763      169413.21      43.91765       43.91765       87.8353            16000 
     11000   3238.1674      101880.05      6.4469275      102008.48      101659.19      101972.47     -14.197104     -551.07218      1752.2312      6696.6372      3226.0937      9922.7309      169737.06      43.945616      43.945616      87.891232          16000 
     12000   3202.8664      101990.08      12.904203      101090.85      102729.18      102150.2      -772.23031     -655.60054      53.200931      6623.6336      3206.7888      9830.4225      169645.04      43.937674      43.937674      87.875347          16000 
     13000   3198.9252      101232.47      19.359775      101170.3       101230.4       101296.7      -476.6654       972.13239     -1253.0039      6615.4831      3222.3403      9837.8234      169665.02      43.939399      43.939399      87.878797          16000 
     14000   3221.6614      100953.27      25.810091      102147.84      100369.21      100342.76      1442.708       231.15529      1394.8281      6662.5022      3265.803       9928.3052      169781.58      43.949458      43.949458      87.898916          16000 
     15000   3170.6249      102373.68      32.266992      102975.17      101871.05      102274.84     -673.2494      -1013.8599     -226.41168      6556.9571      3219.8115      9776.7686      169560.49      43.930373      43.930373      87.860746          16000 
     16000   3190.342       100626.29      38.724765      100356.55      101685.53      99836.793      388.90827     -1611.472       419.37547      6597.7327      3279.7252      9877.4579      169709.71      43.943256      43.943256      87.886511          16000 
     17000   3208.0607      104482.51      45.169298      105651.13      104995.42      102800.98     -646.49755      1623.433       1773.4304      6634.3755      3233.171       9867.5465      169486.77      43.924005      43.924005      87.84801           16000 
     18000   3198.2422      106412.14      51.623756      106791.06      105815.63      106629.74      1807.2375      1691.4855     -1436.8888      6614.0706      3165.9024      9779.973       169252.62      43.903769      43.903769      87.807537          16000 
     19000   3229.0629      101052.95      58.092462      100617.69      100648.28      101892.89     -2148.5696     -572.43908     -792.91028      6677.8089      3202.4853      9880.2942      169738.47      43.945738      43.945738      87.891475          16000 
     20000   3214.1125      102918.72      64.546514      103151.02      102042.71      103562.43     -236.51146     -355.18383     -256.14719      6646.8909      3193.4825      9840.3734      169536.1       43.928266      43.928266      87.856532          16000 
     21000   3209.3517      102961.12      71.0003        103093.2       103799.43      101990.74      223.46996     -407.07282     -558.48767      6637.0454      3264.4376      9901.483       169617.85      43.935326      43.935326      87.870653          16000 
     22000   3206.4503      100834.14      77.445822      100504.74      101063.68      100934        -272.76576     -1335.5391      258.80084      6631.0453      3242.5549      9873.6001      169749.17      43.946661      43.946661      87.893322          16000 
     23000   3175.9165      100879.26      83.896969      99991.145      100876.35      101770.29      1008.484       1190.4714      901.93635      6567.9002      3217.4123      9785.3125      169722.41      43.944352      43.944352      87.888704          16000 
     24000   3222.9699      100297.91      90.342053      99986.531      100688.45      100218.75     -1170.9893     -298.07613      955.19987      6665.2083      3173.2032      9838.4114      169715.98      43.943797      43.943797      87.887594          16000 
     25000   3218.1542      102108.77      96.783824      102473.73      103619.24      100233.34     -2789.41       -577.27709     -256.67844      6655.2493      3200.6769      9855.9261      169661.47      43.939092      43.939092      87.878183          16000 
     26000   3212.8359      100123.1       103.22519      98442.287      101325.57      100601.43      417.28292      854.78494     -2162.1395      6644.2509      3184.855       9829.1059      169799.78      43.951028      43.951028      87.902056          16000 
     27000   3209.1774      101598.46      109.67042      101318.38      100834.8       102642.19      1854.9116     -75.929502      1578.4181      6636.6849      3220.348       9857.0329      169726.55      43.94471       43.94471       87.889419          16000 
     28000   3210.5603      101010.7       116.10865      100870         101356.55      100805.55      52.060704      716.0732       721.97738      6639.5448      3261.7236      9901.2684      169758.74      43.947487      43.947487      87.894975          16000 
     29000   3165.3443      99583.126      122.55934      99115.208      100270.91      99363.261      2061.6699      772.46834     -404.25124      6546.0366      3125.6277      9671.6643      169715.75      43.943777      43.943777      87.887554          16000 
     30000   3228.2469      99199.281      129.00737      98304.908      99871.39       99421.545      141.59141     -1302.6706      848.17771      6676.1213      3258.4516      9934.5729      169962.79      43.965088      43.965088      87.930177          16000 
     31000   3180.0808      100067.59      135.4529       101228.09      99922.226      99052.443      1320.208       467.3168      -2037.516       6576.5123      3250.8339      9827.3462      169787.14      43.949938      43.949938      87.899876          16000 
     32000   3191.3573      101097.85      141.89549      101364.85      100281.6       101647.11      2198.9414      1702.1816     -993.19339      6599.8324      3239.4727      9839.3051      169740.01      43.945871      43.945871      87.891742          16000 
     33000   3224.0699      100089.76      148.34579      99070.643      99364.054      101834.58     -64.499636     -88.491664      1761.3048      6667.4831      3211.9662      9879.4494      169842.24      43.954692      43.954692      87.909383          16000 
     34000   3198.8461      97965.984      154.80227      98800.363      97248.085      97849.505      610.39483      1963.5024     -1964.2466      6615.3194      3176.5479      9791.8673      169942.29      43.963321      43.963321      87.926641          16000 
     35000   3213.9862      95740.466      161.25559      95062.85       95860.439      96298.109     -1076.3958      1099.0009     -702.99107      6646.6297      3272.6035      9919.2332      170254.4       43.990218      43.990218      87.980436          16000 
     36000   3192.5282      97978.713      167.70723      97493.949      98595.625      97846.566     -423.30094      454.94923      2293.445       6602.2539      3224.3179      9826.5718      170017.41      43.969798      43.969798      87.939596          16000 
     37000   3211.0228      96288.436      174.16569      96432.178      95854.765      96578.367      1505.9063     -2033.5188     -64.0606        6640.5013      3272.2627      9912.764       170190.65      43.984727      43.984727      87.969454          16000 
     38000   3190.4921      97927.605      180.61219      97902.437      98262.435      97617.944     -327.32921     -1153.7419      129.1073       6598.0431      3186.0738      9784.1169      169869.76      43.957065      43.957065      87.914131          16000 
     39000   3172.6303      99054.599      187.06876      97559.731      99451.28       100152.79      670.31341     -276.51911     -48.127088      6561.1043      3219.7344      9780.8387      169821.15      43.952872      43.952872      87.905745          16000 
     40000   3202.0826      98098.72       193.53622      98055.363      98067.409      98173.387     -719.46786     -699.0627       452.9815       6622.0126      3229.6424      9851.655       169977.21      43.966331      43.966331      87.932663          16000 
     41000   3183.8073      99310.084      199.99675      98996.236      99296.709      99637.307     -803.76585      1437.0256      578.3202       6584.2188      3225.3971      9809.6158      169839.25      43.954434      43.954434      87.908868          16000 
     42000   3165.4357      98995.625      206.46731      98429.527      99316.467      99240.881      740.90924     -1019.7091      750.84627      6546.2258      3302.772       9848.9978      169953.21      43.964262      43.964262      87.928525          16000 
     43000   3194.2217      98446.742      212.92718      99301.327      98104.671      97934.228     -911.65417      1571.5971     -4.0085114      6605.7561      3212.8529      9818.6089      169899.42      43.959624      43.959624      87.919247          16000 
     44000   3212.2183      100200.84      219.37835      100835.06      99394.892      100372.57      1222.0591      7.7581601     -2924.6843      6642.9736      3152.7938      9795.7673      169786.7       43.9499        43.9499        87.899801          16000 
     45000   3193.9211      100775.71      225.83848      99688.893      102875.38      99762.844      329.41647     -279.63206      380.90853      6605.1345      3245.8894      9851.0239      169811.14      43.952009      43.952009      87.904018          16000 
     46000   3155.7309      98547.021      232.29409      99294.639      98377.027      97969.397     -1733.4136     -828.35439     -2907.8379      6526.1558      3170.585       9696.7409      169818.82      43.952671      43.952671      87.905342          16000 
     47000   3210.7432      99991.741      238.74987      99732.247      100022.95      100220.02      1205.5618     -503.99544     -229.38582      6639.9232      3200.6066      9840.5298      169773.11      43.948727      43.948727      87.897455          16000 
     48000   3205.8063      101975.28      245.20097      102208.08      101205.5       102512.27      668.49183      889.68272      1130.0106      6629.7135      3239.7221      9869.4356      169714.53      43.943672      43.943672      87.887344          16000 
     49000   3195.6014      100056.51      251.6648       100196.29      101228.71      98744.542     -721.94134     -1172.7905     -452.19564      6608.6093      3229.7723      9838.3816      169801.2       43.951151      43.951151      87.902302          16000 
     50000   3232.2109      100507.7       258.12074      101712.09      100006.21      99804.808     -455.02934      1778.4996     -820.06387      6684.3191      3265.1674      9949.4865      169823.63      43.953086      43.953086      87.906172          16000 
     51000   3208.2865      102657.72      264.57028      103535.13      102912.08      101525.95     -1889.7489      1731.6449     -64.492905      6634.8424      3267.6901      9902.5326      169610.66      43.934705      43.934705      87.869411          16000 
     52000   3199.4089      105087.86      271.036        105500.5       105405.4       104357.68     -734.64211     -303.16602      330.02082      6616.4834      3231.2722      9847.7556      169428.12      43.918938      43.918938      87.837876          16000 
     53000   3202.1706      102038.26      277.49191      102219.09      103022.34      100873.36     -786.60454     -1230.3948     -981.52769      6622.1947      3275.9503      9898.145       169760.41      43.947632      43.947632      87.895263          16000 
     54000   3198.3361      99848.047      283.94973      99484.966      100335.48      99723.697      958.22491     -1173.8427      625.36259      6614.2648      3103.1404      9717.4052      169682.95      43.940946      43.940946      87.881893          16000 
     55000   3194.4288      101064.2       290.40505      102089.35      101066.67      100036.6       307.06137     -379.62759     -348.65352      6606.1844      3244.683       9850.8674      169782.62      43.949548      43.949548      87.899096          16000 
     56000   3211.2987      97519.67       296.86709      97645.978      97945.958      96967.073     -254.68298      1149.6612      1991.6591      6641.0719      3301.4735      9942.5454      170028.55      43.970758      43.970758      87.941516          16000 
     57000   3151.9824      99903.4        303.32531      98686.945      101044.27      99978.986      467.3333      -1555.9153     -822.13432      6518.4038      3281.45        9799.8538      169805.14      43.951491      43.951491      87.902982          16000 
     58000   3226.7956      98427.976      309.78127      98234.182      98312.791      98736.956     -4.3128629      1412.7201      12.900549      6673.12        3251.2903      9924.4103      169937.7       43.962925      43.962925      87.92585           16000 
     59000   3172.3782      98654.722      316.23173      97167.809      99321.259      99475.098     -146.35157     -828.22472     -540.62495      6560.583       3250.8165      9811.3995      169894.9       43.959234      43.959234      87.918468          16000 
     60000   3230.0748      98552.55       322.6868       99628.896      99053.586      96975.166      615.30175      2345.9684      256.28957      6679.9014      3146.6407      9826.5422      169878.24      43.957797      43.957797      87.915594          16000 
     61000   3195.3195      100652.04      329.1417       99483.338      101265.65      101207.12      1081.1826      837.87894     -924.82792      6608.0263      3323.9604      9931.9867      169783.19      43.949597      43.949597      87.899195          16000 
     62000   3208.496       99616.309      335.59459      100890.35      99388.579      98569.997     -4309.3        -2272.9101     -312.5942       6635.2758      3225.2848      9860.5606      169793         43.950443      43.950443      87.900887          16000 
     63000   3202.6149      99534.643      342.05072      99869          100276.81      98458.115     -566.08674      787.47354     -1968.9458      6623.1135      3243.8645      9866.978       169913.38      43.960827      43.960827      87.921655          16000 
     64000   3195.2541      101981.33      348.50094      102247.87      102684.4       101011.73     -987.94261     -1714.0032      729.70431      6607.891       3317.0056      9924.8966      169759.17      43.947524      43.947524      87.895048          16000 
     65000   3187.1055      104450.52      354.96354      104784.76      102914.84      105651.98     -865.08651      168.78105      619.97539      6591.0395      3257.3991      9848.4386      169416.54      43.917938      43.917938      87.835876          16000 
     66000   3204.6531      101607.49      361.41683      101996.12      100138.69      102687.66     -397.33318      681.00525      1041.933       6627.3286      3238.4308      9865.7594      169703.95      43.942759      43.942759      87.885517          16000 
     67000   3231.7955      100671.7       367.86956      100152.99      101117.18      100744.93      1293.8608      1170.1103      2260.366       6683.4599      3241.0935      9924.5533      169795.23      43.950636      43.950636      87.901271          16000 
     68000   3199.1412      102285.12      374.32675      101741.15      102781.85      102332.38     -40.720441     -2014.4112      421.41678      6615.9298      3228.2425      9844.1723      169627.49      43.936158      43.936158      87.872317          16000 
     69000   3197.29        104115.13      380.77943      104476.88      104348.33      103520.18     -444.24973     -914.54893     -438.21131      6612.1015      3248.5127      9860.6141      169513.52      43.926316      43.926316      87.852633          16000 
     70000   3220.2816      102358.68      387.23546      103259.32      101499.48      102317.23     -1549.2838     -300.19908     -1488.3813      6659.6488      3182.576       9842.2247      169697.85      43.942232      43.942232      87.884464          16000 
     71000   3215.7283      100821.72      393.69457      101463.46      100291.49      100710.22     -210.01848     -939.84678      1746.2964      6650.2325      3175.6096      9825.8421      169711.23      43.943387      43.943387      87.886773          16000 
     72000   3191.0925      100699.08      400.14962      99718.269      100664.81      101714.17     -501.16771     -713.25404     -75.044581      6599.2848      3230.9334      9830.2183      169728.31      43.944861      43.944861      87.889723          16000 
     73000   3186.5725      99080.477      406.60765      98727.11       100449.41      98064.908     -1344.777       829.01052     -1902.8292      6589.9372      3214.6698      9804.607       169871.73      43.957236      43.957236      87.914472          16000 
     74000   3182.1948      94546.459      413.06773      94833.057      95011.244      93795.075      539.22122     -1539.6022      376.60324      6580.8841      3235.1824      9816.0664      170264.34      43.991074      43.991074      87.982149          16000 
     75000   3189.8915      95740.432      419.53373      95504.834      95999.946      95716.518      228.04211      161.8183       1108.6443      6596.8011      3222.9649      9819.7661      170147.77      43.981033      43.981033      87.962066          16000 
     76000   3193.4633      96399.288      425.99004      95679.304      96847.847      96670.714      973.90203      435.19962      601.0726       6604.1876      3236.6633      9840.8509      170105.84      43.977419      43.977419      87.954838          16000 
     77000   3175.1566      99773.884      432.447        99880.422      99732.184      99709.045      411.131       -365.38056      517.53598      6566.3288      3174.0261      9740.3549      169861.98      43.956395      43.956395      87.91279           16000 
     78000   3206.04        99329.706      438.89776      99632.808      98480.208      99876.102      269.48973     -775.47777      1082.6938      6630.1967      3194.7025      9824.8992      169848.13      43.955199      43.955199      87.910399          16000 
     79000   3206.4502      98661.337      445.35032      98653.73       98780.355      98549.927      771.02262      1046.5617     -110.6565       6631.0451      3235.9385      9866.9836      169931.52      43.962392      43.962392      87.924784          16000 
     80000   3163.8817      100917.49      451.8132       99787.3        102427.71      100537.45      650.20412      2252.1319      1533.5562      6543.0119      3182.9791      9725.9909      169705.31      43.942876      43.942876      87.885752          16000 
     81000   3219.4329      96560.014      458.25782      95847.505      96866.386      96966.153     -2344.8887     -585.90954      1288.3874      6657.8937      3234.8457      9892.7394      170090.08      43.976061      43.976061      87.952123          16000 
     82000   3174.1067      98799.23       464.70576      98517.058      99751.587      98129.044      982.4806      -854.36581     -468.661        6564.1577      3161.3516      9725.5093      169823.51      43.953076      43.953076      87.906151          16000 
     83000   3215.3706      97145.253      471.16459      96718.977      97257.386      97459.398     -606.50041     -264.52021     -1024.4037      6649.4927      3260.3849      9909.8776      170107.77      43.977586      43.977586      87.955172          16000 
     84000   3172.1408      95567.917      477.61523      95573.64       96164.817      94965.293      1747.7585     -482.93123      432.56856      6560.092       3261.1305      9821.2224      170224.33      43.987628      43.987628      87.975256          16000 
     85000   3191.7021      95922.866      484.06426      94565.163      95464.816      97738.619     -1207.8436      460.66616     -1220.9673      6600.5455      3215.5969      9816.1424      170171.48      43.983076      43.983076      87.966151          16000 
     86000   3176.2587      99339.772      490.51801      99354.095      98821.998      99843.223     -832.31584      982.91373     -2847.5952      6568.6079      3265.4427      9834.0507      169933.82      43.96259       43.96259       87.925181          16000 
     87000   3219.6559      97530.701      496.9671       97618.213      98166.606      96807.285     -252.40246     -226.42623      285.28514      6658.3548      3206.799       9865.1538      170024.5       43.970408      43.970408      87.940817          16000 
     88000   3187.6822      98423.737      503.42042      99190.025      99087.183      96994.003      177.95147      1103.2777     -19.912061      6592.2323      3313.763       9905.9952      169961.4       43.964968      43.964968      87.929937          16000 
     89000   3198.8059      99144.764      509.86558      100245.92      98304.692      98883.681     -202.42375      958.1908      -784.9716       6615.2363      3224.9522      9840.1885      169876.73      43.957667      43.957667      87.915334          16000 
     90000   3214.392       96080.867      516.3111       96845.713      95760.794      95636.095      204.27689      49.733965     -1633.8612      6647.4689      3242.442       9889.9109      170144.45      43.980747      43.980747      87.961493          16000 
     91000   3218.3935      95383.748      522.75756      95163.258      95333.374      95654.612      3194.6472      690.65077      456.5519       6655.7441      3251.9497      9907.6938      170167.11      43.982699      43.982699      87.965397          16000 
     92000   3177.1077      100384.41      529.21984      101688.43      100175.99      99288.821      306.4263       130.6248       367.23861      6570.3638      3219.3275      9789.6913      169799.66      43.951018      43.951018      87.902036          16000 
     93000   3212.651       99021.173      535.66693      99156.7        99596.283      98310.535     -1035.0873     -77.588635      2074.9971      6643.8684      3218.4993      9862.3677      169889.31      43.958752      43.958752      87.917504          16000 
     94000   3186.7455      99713.545      542.11394      100614.66      100054.93      98471.047      955.3386       1791.2573      1639.9735      6590.2951      3174.0711      9764.3662      169786.68      43.949898      43.949898      87.899796          16000 
     95000   3223.4759      99712.186      548.56489      100694.77      99472.118      98969.673     -2087.4243     -833.88752     -509.51709      6666.2547      3212.6297      9878.8844      169897.62      43.959469      43.959469      87.918937          16000 
     96000   3177.482       101290.88      555.02012      100464.59      100737.95      102670.09      252.34293     -2233.9785     -1025.4773      6571.1378      3250.1278      9821.2655      169678.27      43.940542      43.940542      87.881083          16000 
     97000   3201.9123      103162.18      561.46857      103599.86      102337.35      103549.32      514.44522     -767.16491     -2159.7888      6621.6605      3247.8204      9869.481       169623.07      43.935776      43.935776      87.871553          16000 
     98000   3222.1263      102571.63      567.91697      102971.05      101419.5       103324.34     -1328.0736     -564.11456      135.09755      6663.4637      3272.7606      9936.2243      169692.49      43.941769      43.941769      87.883538          16000 
     99000   3212.9265      102730.09      574.38264      102585.7       102778.9       102825.66      145.2357      -69.674091      619.73042      6644.4382      3234.5887      9879.0269      169624.49      43.935899      43.935899      87.871798          16000 
    100000   3200.0879      100995.8       580.83915      101187.81      101194.81      100604.78      146.50366      203.54118     -1368.104       6617.8875      3297.4798      9915.3673      169811.89      43.952074      43.952074      87.904147          16000 
    101000   3221.6883      100858.3       587.28897      100490.1       101089.26      100995.54     -117.98079     -1826.7929     -3157.1043      6662.5578      3231.2685      9893.8264      169831.39      43.953756      43.953756      87.907511          16000 
    102000   3224.6847      102104.01      593.73874      102542.05      101239.29      102530.68     -69.761716     -234.19659     -2761.3258      6668.7546      3209.2919      9878.0465      169679.75      43.94067       43.94067       87.881339          16000 
    103000   3200.5269      103848.12      600.19014      102115.68      104007.78      105420.9      -987.45074     -973.04052      139.68795      6618.7954      3227.0243      9845.8197      169524.66      43.927278      43.927278      87.854557          16000 
    104000   3171.7171      101769.67      606.63318      103535.02      101058.22      100715.77     -1192.0965      1120.3935     -2431.3818      6559.2158      3202.7859      9762.0017      169653.19      43.938377      43.938377      87.876753          16000 
    105000   3174.0139      100665.29      613.07787      100475.16      100957.45      100563.27      2111.7715      972.98764      385.25297      6563.9656      3273.4252      9837.3908      169850.51      43.955405      43.955405      87.91081           16000 
    106000   3162.7698      98278.469      619.52086      97918.369      98416.234      98500.805      657.05663      137.39629     -186.37074      6540.7126      3309.603       9850.3156      169978.17      43.966414      43.966414      87.932829          16000 
    107000   3172.255       96100.906      625.96716      96056.296      96490.2        95756.223     -914.71987      347.34871     -358.31016      6560.3282      3238.747       9799.0753      170138.46      43.980231      43.980231      87.960462          16000 
    108000   3198.329       95259.658      632.41521      94714.197      95263.717      95801.059      17.823485      2121.3229      240.34672      6614.25        3216.2628      9830.5128      170201.34      43.985648      43.985648      87.971296          16000 
    109000   3183.1198      99552.998      638.85799      99058.513      99808.797      99791.683     -1561.7248     -206.03693     -1045.2683      6582.797       3198.8346      9781.6316      169769.43      43.948409      43.948409      87.896819          16000 
    110000   3209.3778      98991.803      645.30631      99786.73       98674.305      98514.376      877.37411     -1606.7998      509.10173      6637.0994      3218.3096      9855.4089      169875.52      43.957563      43.957563      87.915125          16000 
    111000   3149.2985      101168.9       651.76459      101931.08      99787.303      101788.32     -618.28299      1177.2352     -863.76133      6512.8534      3258.53        9771.3834      169637.34      43.937009      43.937009      87.874018          16000 
    112000   3165.5233      100758.1       658.21698      100485.11      100600.82      101188.38     -296.77329     -313.51643     -2571.6292      6546.4068      3264.5094      9810.9162      169721.69      43.94429       43.94429       87.88858           16000 
    113000   3221.7805      100340.96      664.66748      100118.7       100725.25      100178.91     -2377.4771      758.52279      63.217958      6662.7485      3240.9573      9903.7059      169835.34      43.954096      43.954096      87.908193          16000 
    114000   3156.0372      99580.387      671.12007      99154.255      100332.98      99253.93      -327.31087      36.522613      1124.3624      6526.7893      3191.2749      9718.0641      169799.27      43.950985      43.950985      87.901969          16000 
    115000   3204.2034      97243.999      677.57377      96613.753      98153.288      96964.956      1009.3808     -308.15658      1003.3737      6626.3986      3228.9055      9855.3041      170083.62      43.975505      43.975505      87.951009          16000 
    116000   3163.195       96341.893      684.03013      95913.25       97290.475      95821.953      2137.0965      1777.2211     -795.76712      6541.5919      3251.0906      9792.6826      170092.48      43.976268      43.976268      87.952536          16000 
    117000   3210.461       97633.576      690.49102      96345.353      98750.948      97804.426      2511.0651      413.30313     -451.36506      6639.3396      3138.1795      9777.5191      169969.87      43.965699      43.965699      87.931398          16000 
    118000   3217.4272      98737.079      696.95223      99650.015      99134.945      97426.276     -764.31925      543.09502     -503.38872      6653.7458      3366.5415      10020.287      169995.33      43.967894      43.967894      87.935788          16000 
    119000   3223.2516      98202.001      703.40942      98550.318      98005.007      98050.677     -529.21454      520.71531      1413.1669      6665.7908      3229.1767      9894.9675      169984.67      43.966975      43.966975      87.933949          16000 
    120000   3194.058       97523.921      709.86435      97682.908      97277.704      97611.151      887.60511      710.65562      2133.928       6605.4175      3232.7954      9838.2129      169944.15      43.963481      43.963481      87.926962          16000 
    121000   3175.754       99402.417      716.3186       99613.832      98972.506      99620.913      75.336869      1778.7236      96.305307      6567.5643      3137.1544      9704.7187      169823.39      43.953065      43.953065      87.906131          16000 
    122000   3178.757       98190.579      722.77424      98395.544      98367.466      97808.728     -2250.752      -1608.7947      1417.1628      6573.7747      3289.4683      9863.2429      170008.21      43.969004      43.969004      87.938009          16000 
    123000   3197.9071      99764.527      729.24531      99160.124      99726.209      100407.25     -957.58033     -90.848248     -885.82083      6613.3776      3176.8003      9790.1779      169838.41      43.954361      43.954361      87.908723          16000 
    124000   3209.8082      100266.98      735.70836      100051.52      99983.206      100766.22     -1654.5718      1335.7248      1780.5598      6637.9896      3233.3383      9871.3279      169808.04      43.951741      43.951741      87.903482          16000 
    125000   3203.9007      101718.02      742.16466      101704.99      101742.23      101706.85      1168.645       1133.2917     -484.93791      6625.7727      3114.2665      9740.0391      169608.55      43.934523      43.934523      87.869046          16000 
    126000   3224.3792      99742.241      748.61827      100017.83      98784.051      100424.84      864.93631     -775.38851      571.88026      6668.1228      3214.8328      9882.9556      169895.34      43.959272      43.959272      87.918543          16000 
    127000   3204.3561      101253.47      755.08398      100704.81      101718.85      101336.76     -2707.8967     -738.1426      -2548.1211      6626.7144      3237.8781      9864.5925      169804.09      43.9514        43.9514        87.902801          16000 
    128000   3216.3295      98673.01       761.54233      98739.032      98260.657      99019.341     -1681.2746     -1537.3916     -655.87612      6651.4758      3218.0309      9869.5068      169864.12      43.956579      43.956579      87.913157          16000 
    129000   3209.6498      99055.247      768.0023       98115.139      100016.44      99034.158      98.088564     -2451.197       278.23614      6637.6619      3243.2         9880.8619      169937.13      43.962876      43.962876      87.925752          16000 
    130000   3181.316       99977.362      774.46717      101238.93      98803.537      99889.618      1619.4962      1395.4759     -1710.923       6579.0666      3333.0382      9912.1048      169846.9       43.955094      43.955094      87.910188          16000 
    131000   3198.1448      101846.25      780.92358      101650.35      101938.86      101949.55     -1243.9914      2172.5267     -1651.3897      6613.8692      3240.3993      9854.2685      169691.62      43.941695      43.941695      87.883389          16000 
    132000   3217.2303      99714.445      787.38055      100065.87      100497.56      98579.901      1410.5106     -1442.2983      697.67209      6653.3387      3216.334       9869.6727      169840.24      43.954519      43.954519      87.909038          16000 
    133000   3190.9974      101938.27      793.83471      101949.19      101452.79      102412.83      428.94429      1364.9059     -2181.2658      6599.088       3194.9347      9794.0227      169667.83      43.939641      43.939641      87.879281          16000 
    134000   3175.0386      100690.7       800.2873       100489.52      99984.174      101598.42     -894.19268      233.55348     -562.11222      6566.0849      3287.8742      9853.9591      169826.05      43.953295      43.953295      87.90659           16000 
    135000   3179.5753      100159.55      806.74188      101390.16      99071.588      100016.89     -343.76858      521.60695      1831.2884      6575.4669      3217.1025      9792.5694      169751.77      43.946886      43.946886      87.893771          16000 
    136000   3214.659       99254.256      813.19867      99476.281      98764.427      99522.061      570.0709      -411.71983     -311.47742      6648.0212      3207.242       9855.2632      169829.65      43.953606      43.953606      87.907212          16000 
    137000   3238.6216      99650.256      819.65169      98911.684      100883.85      99155.235      1344.6033     -2207.6979      1298.7556      6697.5766      3227.6638      9925.2403      169856.93      43.955959      43.955959      87.911918          16000 
    138000   3187.8805      102957.03      826.10784      102907.67      102747.65      103215.77      815.24557      93.902661      1144.7358      6592.6423      3207.6855      9800.3278      169547.24      43.929229      43.929229      87.858457          16000 
    139000   3204.1476      100206.65      832.56572      100347.92      100192.35      100079.69      2441.9125     -194.73559      428.09394      6626.2831      3289.1168      9915.3999      169745.81      43.946371      43.946371      87.892743          16000 
    140000   3179.7646      101197.09      839.03124      101060.87      101641.56      100888.84      734.39714      1424.91        191.94321      6575.8583      3280.972       9856.8304      169678.63      43.940573      43.940573      87.881146          16000 
    141000   3202.7358      99179.623      845.49854      98050.443      99412.298      100076.13     -265.73817      1408.7198      1423.8644      6623.3635      3166.9201      9790.2835      169865.78      43.956722      43.956722      87.913444          16000 
    142000   3209.2345      97496.054      851.95748      97817.83       96938.894      97731.438     -2870.8647      1591.7683     -2942.1954      6636.803       3221.8968      9858.6998      170063.66      43.973785      43.973785      87.947569          16000 
    143000   3207.1558      96799.05       858.41395      95633.147      96588.314      98175.689      159.18681      1930.6898      1397.6535      6632.5042      3201.9356      9834.4398      170082.9       43.975443      43.975443      87.950885          16000 
    144000   3220.8791      98342.381      864.87631      98984.934      98130.393      97911.815      36.551791     -863.1149       48.353752      6660.8844      3126.2967      9787.1812      169912.84      43.960781      43.960781      87.921562          16000 
    145000   3188.5547      99414.659      871.33078      98603.019      97988.079      101652.88      610.72184      945.36019      284.22432      6594.0365      3206.1915      9800.228       169833.46      43.953934      43.953934      87.907868          16000 
    146000   3174.3746      97284.975      877.79193      96590.56       97341.889      97922.477     -981.96814      1286.3594      136.68101      6564.7117      3218.98        9783.6917      169991.41      43.967556      43.967556      87.935112          16000 
    147000   3205.6272      94569.2        884.25375      94582.558      94771.665      94353.379     -2302.1883      1524.7105      77.803858      6629.343       3260.5797      9889.9227      170255.75      43.990334      43.990334      87.980669          16000 
    148000   3171.6451      99050.596      890.70819      98350.525      99331.759      99469.502     -232.4463       837.36761     -1451.2211      6559.0669      3227.3667      9786.4336      169858.61      43.956104      43.956104      87.912208          16000 
    149000   3186.4048      97885.851      897.16493      97990.306      98067.426      97599.821     -2051.1182      551.45188      1739.6742      6589.5905      3272.9963      9862.5868      170017.44      43.9698        43.9698        87.939601          16000 
    150000   3157.0351      97014.364      903.62107      98352.014      95952.049      96739.027     -763.21571      744.58308     -708.36196      6528.853       3186.5686      9715.4217      169970.65      43.965767      43.965767      87.931533          16000 
    151000   3157.3231      95804.069      910.0798       95728.363      95789.985      95893.858     -409.8013      -1920.599      -1448.8327      6529.4485      3294.3746      9823.8231      170131.99      43.979673      43.979673      87.959346          16000 
    152000   3176.8004      96908.357      916.54295      95867.671      96739.401      98117.998     -320.53739     -1760.079      -1028.1244      6569.7282      3255.6879      9825.416       170017.78      43.969829      43.969829      87.939659          16000 
    153000   3185.2687      97954.432      923.00328      96396.897      98643.93       98822.468      1097.538       1176.9725      1244.9624      6587.241       3231.7498      9818.9908      169910.94      43.960617      43.960617      87.921234          16000 
    154000   3191.0207      96369.583      929.46861      95931.484      96207.182      96970.082     -740.8033      -997.95339     -43.936064      6599.1363      3312.6608      9911.7971      170128.33      43.979358      43.979358      87.958716          16000 
    155000   3177.6256      99753.95       935.9339       98505.128      100537.18      100219.54     -93.36781      -165.03947      553.13032      6571.4347      3220.3951      9791.8298      169880.82      43.958019      43.958019      87.916038          16000 
    156000   3229.6912      98136.766      942.39575      98526.701      97585.412      98298.186      1527.9868      2791.3225      137.01647      6679.1081      3204.0483      9883.1564      170007.29      43.968926      43.968926      87.937851          16000 
    157000   3199.8514      99297.191      948.84815      98525.281      98608.014      100758.28     -538.67228     -802.20505      929.7249       6617.3985      3205.7665      9823.165       169785.67      43.949811      43.949811      87.899622          16000 
    158000   3207.6775      101185.39      955.30438      101160.32      101733.29      100662.57      844.47771     -1640.5347      537.60326      6633.5831      3293.582       9927.1651      169815.86      43.952415      43.952415      87.904831          16000 
    159000   3198.766       101187.62      961.75751      101444.03      102329.67      99789.147     -1789.2946      2490.0336      285.4612       6615.1539      3218.7075      9833.8613      169661.91      43.93913       43.93913       87.87826           16000 
    160000   3175.3707      100296.32      968.21301      98808.872      101429.51      100650.59     -267.91164      491.67602     -761.1539       6566.7716      3256.4755      9823.2471      169755.41      43.9472        43.9472        87.894399          16000 
    161000   3235.4135      101959.17      974.67068      100869.31      102779.07      102229.12     -1071.1659      1509.1242      1481.1681      6690.9421      3284.7541      9975.6962      169690.47      43.941596      43.941596      87.883191          16000 
    162000   3203.1245      104601.98      981.12688      103867.14      105843.77      104095.03      2447.4662      638.42789     -50.419536      6624.1673      3230.4032      9854.5705      169376.48      43.914475      43.914475      87.828951          16000 
    163000   3226.0787      108231.3       987.57616      107658.14      109259.6       107776.16     -2298.7009      1742.0804      2286.6122      6671.6374      3219.061       9890.6984      169158.55      43.895634      43.895634      87.791267          16000 
    164000   3205.2338      101330.63      994.02617      100957.09      101354.26      101680.53     -930.87021      775.05192      3130.7982      6628.5296      3227.9771      9856.5066      169723.15      43.944416      43.944416      87.888832          16000 
    165000   3211.0451      100008.65      1000.4792      99906.498      101282.53      98836.918      1993.7413      2519.396       695.99831      6640.5474      3291.055       9931.6024      169872.72      43.957321      43.957321      87.914642          16000 
    166000   3191.3266      102692.75      1006.9353      102457.84      101036.32      104584.1      -975.27754     -210.45887     -2253.9067      6599.769       3201.6058      9801.3748      169594.92      43.933346      43.933346      87.866691          16000 
    167000   3233.7632      102203.67      1013.3818      102825.34      102905.08      100880.6       596.48344     -216.23199      784.54764      6687.5292      3272.1868      9959.7159      169739.47      43.945824      43.945824      87.891648          16000 
    168000   3200.9631      103982.98      1019.8279      103652.4       104184.89      104111.65      244.18534      559.74281      1987.1424      6619.6974      3239.1939      9858.8914      169512.35      43.926215      43.926215      87.85243           16000 
    169000   3224.2165      100200.2       1026.2829      99868.528      100021.78      100710.29      749.4152      -1041.0227      1554.2742      6667.7863      3237.116       9904.9023      169767.43      43.948237      43.948237      87.896474          16000 
    170000   3210.1826      99470.564      1032.7353      99362.703      100206.68      98842.305     -1447.7021     -1368.628      -924.3483       6638.7638      3101.9741      9740.7379      169776.81      43.949047      43.949047      87.898093          16000 
    171000   3174.3907      97465.169      1039.1809      97707.546      97830.622      96857.339      1453.8608      730.66803      1750.3734      6564.7449      3272.5715      9837.3164      170012.36      43.969362      43.969362      87.938724          16000 
    172000   3162.9153      98866.621      1045.6265      99594.716      98773.138      98232.01       404.33105     -1533.9183     -576.93231      6541.0133      3218.7328      9759.7461      169853.35      43.95565       43.95565       87.911301          16000 
    173000   3222.5648      98205.064      1052.0751      98718.29       97522.56       98374.341      289.05179     -1966.6844     -1229.4763      6664.3705      3179.7009      9844.0714      169964.2       43.96521       43.96521       87.93042           16000 
    174000   3187.3362      99708.042      1058.5334      99021.84       100483.99      99618.293      1206.7817     -3314.5299      1846.5296      6591.5167      3259.9251      9851.4418      169876.31      43.957631      43.957631      87.915261          16000 
    175000   3222.0119      99510.159      1064.9789      99932.288      99075.795      99522.393     -844.29482     -73.434245     -352.06267      6663.2272      3176.5548      9839.782       169877.49      43.957732      43.957732      87.915464          16000 
    176000   3189.1235      99573.584      1071.4211      99800.798      99182.752      99737.203     -424.20911     -253.55596      1232.0395      6595.2129      3239.3234      9834.5363      169903.99      43.960018      43.960018      87.920036          16000 
    177000   3190.4825      96501.877      1077.8646      96913.199      96729.064      95863.367      1041.2046     -594.0684      -843.30156      6598.0232      3252.2236      9850.2469      170145.76      43.980859      43.980859      87.961718          16000 
    178000   3221.8444      95678.622      1084.31        95996.65       95792.631      95246.585      246.57922      203.73333      278.58685      6662.8807      3137.7242      9800.6048      170172.33      43.983149      43.983149      87.966297          16000 
    179000   3194.9362      95775.271      1090.7514      96735.649      95310.033      95280.131      1210.4954      184.39562      303.01673      6607.2337      3109.5199      9716.7536      170056.7       43.973184      43.973184      87.946369          16000 
    180000   3213.9218      96484.33       1097.1943      95223.059      97106.934      97122.996     -2231.5296     -456.33619      284.99678      6646.4965      3182.0789      9828.5754      170021.73      43.97017       43.97017       87.940341          16000 
    181000   3202.9464      97763.5        1103.6438      96440.88       98669.181      98180.438     -22.701564     -3024.813      -1763.9185      6623.799       3225.801       9849.6         169986.48      43.967131      43.967131      87.934262          16000 
    182000   3184.0994      99567.558      1110.0987      97992.985      100515.11      100194.58     -242.83029     -305.86896     -1410.5777      6584.8227      3182.4358      9767.2585      169824.04      43.953122      43.953122      87.906243          16000 
    183000   3184.9022      98609.106      1116.537       99050.851      98847.272      97929.195      572.08739     -448.19578     -1919.1639      6586.483       3284.7052      9871.1882      169839.56      43.95446       43.95446       87.908921          16000 
    184000   3195.2772      101985.14      1122.9864      102328.9       101388.17      102238.33      648.11121      1103.7021      682.28915      6607.9389      3199.6696      9807.6084      169620.57      43.935561      43.935561      87.871121          16000 
    185000   3236.4362      99465.357      1129.4352      100171.5       99370.452      98854.115      1394.8416     -1068.9244      62.15884       6693.0571      3242.1798      9935.2369      169921.03      43.961488      43.961488      87.922976          16000 
    186000   3190.4446      99768.413      1135.8833      98306.347      101208.06      99790.836     -1474.313       889.7603      -736.64253      6597.945       3259.2366      9857.1816      169803.15      43.951319      43.951319      87.902639          16000 
    187000   3182.2009      101721.96      1142.3308      101495.55      101398.44      102271.88      36.296424      595.05208      2180.9479      6580.8966      3186.7835      9767.6801      169624.4       43.935891      43.935891      87.871783          16000 
    188000   3218.5466      99013.824      1148.7771      98720.846      99890.11       98430.516     -52.30366      -411.5241       1710.209       6656.0607      3211.7945      9867.8553      169879.67      43.957921      43.957921      87.915842          16000 
    189000   3168.7528      101107.27      1155.2163      102610.06      100837.14      99874.624     -434.64072     -168.93868     -1377.6876      6553.0855      3177.6613      9730.7468      169668.47      43.939696      43.939696      87.879392          16000 
    190000   3204.0607      99158.002      1161.6592      99482.25       99754.899      98236.855      910.27217      310.21512     -1607.1149      6626.1035      3241.6275      9867.7309      169871.13      43.957184      43.957184      87.914368          16000 
    191000   3182.5996      101815.54      1168.0998      101830.89      101547.33      102068.38     -2163.4605      517.54078      589.75815      6581.7211      3162.435       9744.1561      169658.21      43.938811      43.938811      87.877622          16000 
    192000   3210.9941      103029.94      1174.5429      103709.64      103493.89      101886.27      646.81923      2282.6823      372.1973       6640.4419      3259.608       9900.0499      169678.07      43.940525      43.940525      87.88105           16000 
    193000   3216.4991      105193.18      1180.9882      106460         104269.44      104850.11     -1386.1231     -1673.4009      1770.7378      6651.8264      3198.6957      9850.5221      169388.84      43.915544      43.915544      87.831088          16000 
    194000   3221.8785      102885.95      1187.4303      101743.59      104267.56      102646.7       57.49239      -823.38741      978.68891      6662.9512      3279.102       9942.0532      169634.25      43.936742      43.936742      87.873484          16000 
    195000   3195.0156      104603.37      1193.8883      104313.82      103634.46      105861.84     -1151.6677     -822.47279     -992.56032      6607.3979      3234.8051      9842.203       169448.94      43.920737      43.920737      87.841473          16000 
    196000   3209.5568      101184.64      1200.3355      101290.81      100719.52      101543.58     -579.16746      1209.0579     -438.46307      6637.4696      3242.4969      9879.9665      169709.87      43.94327       43.94327       87.88654           16000 
    197000   3231.7911      99555.876      1206.7837      101405.41      98658.161      98604.055      51.097392     -749.99537     -57.885578      6683.4508      3190.4834      9873.9341      169823         43.953032      43.953032      87.906063          16000 
    198000   3192.845       100543.67      1213.2398      99652.896      100844.09      101134.01      900.03519     -259.75202      2549.2941      6602.9091      3189.8014      9792.7105      169750.97      43.946817      43.946817      87.893633          16000 
    199000   3206.3336      98175.258      1219.6849      98974.818      97870.071      97680.885      1228.9927     -630.15137     -690.58531      6630.8038      3248.5056      9879.3095      169986.08      43.967097      43.967097      87.934194          16000 
    200000   3170.3195      97646.409      1226.1466      99093.668      96971.083      96874.475      262.74224     -1177.3095     -1408.0911      6556.3256      3163.0972      9719.4228      169889.47      43.958765      43.958765      87.917531          16000 
    201000   3224.3987      97127.237      1232.6008      97896.06       96336.726      97148.924      1485.3328      1984.7579      2660.3868      6668.1632      3236.2301      9904.3933      170079.1       43.975115      43.975115      87.95023           16000 
    202000   3204.9164      98533.328      1239.0459      98460.153      98999.41       98140.422     -215.8671      -1776.5556      341.93251      6627.8731      3175.037       9802.9102      169884.08      43.958301      43.958301      87.916601          16000 
    203000   3213.0991      99843.002      1245.5062      99852.204      98622.827      101053.98     -69.680701      341.67027      898.8039       6644.7951      3199.2316      9844.0267      169855.71      43.955854      43.955854      87.911708          16000 
    204000   3196.3158      100647.68      1251.9519      101251.01      100474.59      100217.44     -1673.1924     -2370.9524      721.02104      6610.0868      3174.4293      9784.516       169695.53      43.942032      43.942032      87.884065          16000 
    205000   3203.8464      99457.785      1258.4002      98894.403      98859.667      100619.28     -1785.3731      230.30123      946.64654      6625.6604      3270.2946      9895.9549      169899.47      43.959628      43.959628      87.919255          16000 
    206000   3149.288       99211.812      1264.8523      100434.65      98632.02       98568.769     -1193.4565     -131.88338      923.03229      6512.8316      3129.9108      9642.7424      169767.93      43.94828       43.94828       87.89656           16000 
    207000   3197.1054      97987.633      1271.2965      97576.483      98396.537      97989.878     -454.25311     -425.14541      165.28132      6611.7196      3248.6836      9860.4032      169989.71      43.967409      43.967409      87.934819          16000 
    208000   3211.72        100736.49      1277.7581      101111.6       101043.91      100053.95     -1050.2103      1233.9864      58.989613      6641.9431      3136.9849      9778.928       169763.4       43.947889      43.947889      87.895778          16000 
    209000   3205.0702      97574.409      1284.208       96552.225      98417.818      97753.185     -467.27507      975.67833      1136.3445      6628.1912      3265.9791      9894.1702      170073.8       43.974659      43.974659      87.949317          16000 
    210000   3126.2659      94847.602      1290.669       94778.602      94577.421      95186.783      1996.9826     -1179.8397     -266.78199      6465.2212      3197.9732      9663.1945      170108.92      43.977685      43.977685      87.95537           16000 
    211000   3202.1462      99576.9        1297.1301      98171.129      100564.25      99995.326     -1753.0827     -962.27489      1353.9978      6622.1442      3234.6621      9856.8063      169884.13      43.958305      43.958305      87.91661           16000 
    212000   3176.9201      101600.2       1303.5923      100541.49      102034.23      102224.88     -517.56415      365.61146      789.90207      6569.9758      3147.3149      9717.2907      169644.67      43.937641      43.937641      87.875283          16000 
    213000   3200.078       102018.6       1310.0496      101913.85      102209.07      101932.87     -823.99126      1315.9374     -742.84095      6617.8671      3227.6258      9845.4929      169631.97      43.936545      43.936545      87.873091          16000 
    214000   3224.2538      102470.74      1316.5074      101666.1       103082.75      102663.38      929.82113     -1439.9792      955.33373      6667.8634      3269.8341      9937.6974      169671.84      43.939987      43.939987      87.879973          16000 
    215000   3179.7799      102173.14      1322.9619      102232.5       101148.38      103138.53     -607.32951      636.80001      99.764325      6575.89        3162.1159      9738.0059      169487.14      43.924038      43.924038      87.848075          16000 
    216000   3200.8775      101781.4       1329.4183      101545.78      103136.67      100661.75     -460.0555      -942.84247     -1273.9178      6619.5204      3212.9179      9832.4383      169629.57      43.936338      43.936338      87.872675          16000 
    217000   3243.4776      99229.705      1335.869       99106.136      98363.443      100219.54      1971.2573     -404.36807      1972.3688      6707.6189      3228.5664      9936.1852      169862.8       43.956465      43.956465      87.91293           16000 
    218000   3205.1357      101924.19      1342.3189      102437.7       100543.79      102791.08      1288.7002     -1469.5948     -470.00541      6628.3265      3168.7887      9797.1152      169645.55      43.937717      43.937717      87.875435          16000 
    219000   3193.6614      101595.19      1348.7694      101883.83      102316.92      100584.81     -459.10491      960.59492     -782.62017      6604.5974      3214.5534      9819.1508      169651.16      43.938201      43.938201      87.876403          16000 
    220000   3185.0788      100632.41      1355.2136      101365.38      100169.02      100362.83     -168.45232      539.36708     -1058.9654      6586.8483      3312.8906      9899.739       169825.68      43.953263      43.953263      87.906526          16000 
    221000   3159.3123      99998.65       1361.6621      99826.225      100427.13      99742.59       792.52466     -285.59435      1780.7915      6533.5624      3257.5921      9791.1544      169782.15      43.949507      43.949507      87.899015          16000 
    222000   3216.6698      98199.167      1368.1114      99217.99       97935.234      97444.279      256.72303      25.202988     -395.96578      6652.1796      3261.0223      9913.2019      169980.88      43.966649      43.966649      87.933297          16000 
    223000   3186.5479      99979.716      1374.5572      99956.954      99002.123      100980.07      1307.3657      614.91158     -490.40575      6589.8864      3253.0025      9842.8889      169780.51      43.949366      43.949366      87.898732          16000 
    224000   3252.3887      98030.601      1381.0105      97685.542      98279.821      98126.44       1637.1325      9.6848709      581.34026      6726.0474      3177.9997      9904.047       169977.64      43.966369      43.966369      87.932739          16000 
    225000   3177.0288      99010.866      1387.4612      99755.992      98780.625      98495.979      83.553184      84.272067      768.05793      6570.2006      3232.6351      9802.8358      169819         43.952686      43.952686      87.905373          16000 
    226000   3172.5434      96247.452      1393.9039      96395.962      95991.992      96354.403     -175.97047     -283.12081      1314.4818      6560.9247      3271.4469      9832.3717      170068.61      43.974211      43.974211      87.948421          16000 
    227000   3209.5518      97309.115      1400.3557      97354.008      96154.274      98419.062      1252.3054      2945.9128     -860.48736      6637.4591      3187.2877      9824.7469      170024.2       43.970383      43.970383      87.940766          16000 
    228000   3201.0384      97365.885      1406.8196      97040.458      96136.974      98920.223     -2152.4874     -456.58702      1111.4108      6619.8533      3272.4243      9892.2776      170002.78      43.968537      43.968537      87.937073          16000 
    229000   3196.649       97008.176      1413.2837      96981.787      97638.982      96403.759     -829.03632     -732.83504      101.8404       6610.7758      3212.227       9823.0029      170039         43.971659      43.971659      87.943317          16000 
    230000   3194.2856      95486.983      1419.7513      95537.776      95828.818      95094.356      1472.0108      1559.0197     -385.09308      6605.8883      3214.0355      9819.9238      170118.4       43.978502      43.978502      87.957004          16000 
    231000   3224.5647      98363.128      1426.2081      99951.695      98561.338      96576.35      -68.818161     -978.17936      848.34265      6668.5063      3268.8793      9937.3856      169942.95      43.963378      43.963378      87.926755          16000 
    232000   3178.8316      101157.57      1432.6686      101927.9       101954.69      99590.132      578.36567     -506.99619      412.52235      6573.9289      3183.5564      9757.4853      169726.77      43.944728      43.944728      87.889456          16000 
    233000   3194.6126      100698.88      1439.1348      101242.43      100575.59      100278.62     -2018.9811      1763.9708      732.25246      6606.5644      3252.0844      9858.6488      169856.88      43.955955      43.955955      87.91191           16000 
    234000   3194.8578      101183.72      1445.5901      100773.31      101979.38      100798.48     -254.29618     -1263.2595     -500.1238       6607.0716      3193.9712      9801.0428      169675.14      43.940272      43.940272      87.880544          16000 
    235000   3204.9633      100324.11      1452.0446      99397.222      101101.16      100473.95     -245.12993     -1181.4715      1969.1837      6627.9701      3301.0309      9929.001       169834.11      43.95399       43.95399       87.90798           16000 
    236000   3148.0227      100717.65      1458.5055      100911.49      100652.52      100588.95      1767.5195     -1353.4951      390.58395      6510.2151      3253.6784      9763.8935      169721.53      43.944276      43.944276      87.888552          16000 
    237000   3179.5207      100648.62      1464.959       101749.47      100147.75      100048.62     -1591.1697      1228.983      -264.80075      6575.3538      3292.0224      9867.3762      169837.53      43.954285      43.954285      87.908571          16000 
    238000   3209.0554      100294.27      1471.4178      99406.656      100436.46      101039.7      -222.57841      1765.8029     -959.93605      6636.4327      3219.6114      9856.0441      169814.42      43.952291      43.952291      87.904583          16000 
    239000   3179.821       96994.263      1477.8733      97622.549      97281.113      96079.126     -1014.6231      586.63648      508.51136      6575.9749      3291.3223      9867.2972      170040.39      43.971778      43.971778      87.943556          16000 
    240000   3175.7062      99173.489      1484.3282      99816.983      99372.531      98330.953      2982.2889      546.2431       1134.3664      6567.4655      3222.2393      9789.7048      169874.73      43.957494      43.957494      87.914988          16000 
    241000   3212.1988      98761.89       1490.788       98259.652      99577.12       98448.899      1107.6675     -1551.5168      990.54237      6642.9334      3208.5454      9851.4788      169955.31      43.964444      43.964444      87.928888          16000 
    242000   3179.4421      98476.55       1497.2405      97790.219      98759.452      98879.98      -1360.6056      2210.6826     -1501.4783      6575.1913      3125.7669      9700.9583      169802.52      43.951265      43.951265      87.90253           16000 
    243000   3193.3178      98746.821      1503.6895      99228.097      97943.58       99068.785      1485.2204      1901.969      -1386.2871      6603.8868      3211.1754      9815.0621      169854.7       43.955767      43.955767      87.911533          16000 
    244000   3220.2633      98371.455      1510.1417      97376.432      98440.534      99297.398      1737.4553      1884.1988      181.5217       6659.6109      3262.8323      9922.4432      170013.51      43.969461      43.969461      87.938922          16000 
    245000   3193.291       97749.508      1516.5911      98561.529      97729.906      96957.091      264.29745     -166.90268     -962.45081      6603.8313      3154.6498      9758.4811      169959.74      43.964825      43.964825      87.92965           16000 
    246000   3199.3875      96643.667      1523.0398      96679          95754.171      97497.832     -810.44335     -1179.3548      1316.005       6616.4391      3262.5683      9879.0073      170163.75      43.98241       43.98241       87.964819          16000 
    247000   3175.6818      98313.747      1529.4872      96518.06       99159.546      99263.636      1281.9592      303.05467     -1995.3577      6567.415       3238.8443      9806.2593      169930.91      43.96234       43.96234       87.924679          16000 
    248000   3242.7276      98580.821      1535.937       98455.739      98350.035      98936.69      -498.40103      747.49256     -839.93872      6706.0678      3269.6329      9975.7006      170042.89      43.971994      43.971994      87.943988          16000 
    249000   3181.2201      101200.02      1542.3924      101408.73      101607.72      100583.62     -347.85244     -0.0099790027   229.87754      6578.8682      3258.8262      9837.6944      169776.13      43.948988      43.948988      87.897975          16000 
    250000   3222.2764      99391.621      1548.8417      100214.44      98785.972      99174.452      810.59457      165.53046      2286.3709      6663.7741      3269.2101      9932.9842      169957.25      43.964611      43.964611      87.929222          16000 
    251000   3216.4608      100897.42      1555.2849      100950.02      101042.88      100699.34      1823.5361      1664.5451      1998.7108      6651.7472      3176.6764      9828.4236      169728.6       43.944886      43.944886      87.889772          16000 
    252000   3197.6986      101636.95      1561.7236      101615.93      101535.39      101759.53      530.3081      -1046.5166     -514.35227      6612.9465      3148.1303      9761.0767      169674.09      43.940181      43.940181      87.880363          16000 
    253000   3201.2088      100872.6       1568.1932      101319.41      99438.429      101859.96     -898.26516     -825.54881     -697.54803      6620.2056      3200.5984      9820.804       169813.8       43.952238      43.952238      87.904476          16000 
    254000   3205.5799      98586.32       1574.6461      98745.25       98585.245      98428.465     -370.04511     -262.75761     -1195.1571      6629.2451      3194.6418      9823.887       169962.72      43.965083      43.965083      87.930166          16000 
    255000   3193.5641      99760.333      1581.0884      99112.229      100543.71      99625.056      1369.535       2478.6824     -823.83396      6604.3962      3144.235       9748.6312      169814.39      43.952289      43.952289      87.904579          16000 
    256000   3186.899       97723.903      1587.5373      97188.618      98836.773      97146.317      1895.0642      2583.025       1628.0451      6590.6125      3304.8337      9895.4461      170052.18      43.972795      43.972795      87.94559           16000 
    257000   3222.7549      97943.69       1593.9852      98294.461      98086.736      97449.873     -1017.1001     -1255.4356      568.19216      6664.7637      3192.8566      9857.6203      169979.43      43.966523      43.966523      87.933046          16000 
    258000   3173.6947      95689.844      1600.4325      96763.88       94683.11       95622.542      479.75528     -207.51025     -30.439658      6563.3055      3195.1525      9758.458       170146.5       43.980923      43.980923      87.961846          16000 
    259000   3162.8089      94931.368      1606.8828      94400.85       94310.152      96083.101      199.74332      1143.4085     -896.09949      6540.7933      3237.4864      9778.2796      170135.55      43.97998       43.97998       87.959959          16000 
    260000   3196.7896      97539.212      1613.336       97426.419      97689.052      97502.165      731.93909     -394.79517     -1441.7513      6611.0666      3168.7586      9779.8252      169929.11      43.962184      43.962184      87.924368          16000 
    261000   3189.4778      97551.207      1619.7853      96314.849      97486.329      98852.443     -652.97528     -264.73899      138.57814      6595.9455      3189.6985      9785.644       169962.48      43.965062      43.965062      87.930124          16000 
    262000   3218.0853      98155.752      1626.2352      97971.216      98799.112      97696.926      371.86404     -253.36076     -163.4089       6655.1067      3180.0307      9835.1375      169988.69      43.967322      43.967322      87.934643          16000 
    263000   3186.571       98123.123      1632.6791      97889.455      98420.479      98059.436      530.91885     -1390.9642      479.33064      6589.9343      3292.6276      9882.5619      170102.63      43.977143      43.977143      87.954286          16000 
    264000   3191.0097      98653.392      1639.1284      99573.339      97248.983      99137.854     -1770.8504      381.12365      2240.8471      6599.1136      3261.7059      9860.8195      170001.23      43.968402      43.968402      87.936805          16000 
    265000   3207.3551      98613.847      1645.5751      97731.587      98994.601      99115.353     -710.33053     -1339.3541      674.45631      6632.9164      3137.4287      9770.3451      169871.94      43.957254      43.957254      87.914507          16000 
    266000   3214.0128      97523.558      1652.0156      96875.499      98180.06       97515.115     -911.6571       339.98349     -289.35674      6646.6847      3286.2431      9932.9278      170055.61      43.973091      43.973091      87.946181          16000 
    267000   3163.7535      99932.098      1658.4605      100167.37      99945.915      99683.008     -11.2187        822.42285     -1623.7683      6542.7469      3255.2116      9797.9585      169748.21      43.946579      43.946579      87.893158          16000 
    268000   3186.5135      101323.59      1664.8941      102359.63      100191.37      101419.77      1759.1792     -1344.9596     -366.26427      6589.8154      3274.1065      9863.9218      169690.69      43.941615      43.941615      87.883229          16000 
    269000   3195.9159      102216.8       1671.3375      100434.59      103662.01      102553.8      -1100.0616     -1711.2076      420.81507      6609.2597      3188.8346      9798.0943      169621.82      43.935669      43.935669      87.871337          16000 
    270000   3188.0061      102519.03      1677.795       103312.63      100862.03      103382.42      511.99623      173.10938      100.86869      6592.9021      3195.5304      9788.4324      169587.87      43.932737      43.932737      87.865474          16000 
    271000   3211.0962      100276.63      1684.2422      99869.014      99985.657      100975.23     -1341.4443      2854.0869      435.37715      6640.653       3305.1719      9945.8249      169849.3       43.955301      43.955301      87.910601          16000 
    272000   3194.2487      100741.76      1690.6933      100722.19      99982.136      101520.96     -955.23184     -1042.2308     -928.11911      6605.8119      3217.1714      9822.9833      169845.62      43.954983      43.954983      87.909967          16000 
    273000   3204.6116      100167.55      1697.1446      100408.32      101015.95      99078.384     -64.695542     -403.61322      1312.197       6627.2427      3174.1815      9801.4242      169758.08      43.94743       43.94743       87.894861          16000 
    274000   3195.7158      98206.824      1703.6008      96363.558      99568.272      98688.641      10.847        -2536.8478      641.55341      6608.846       3253.1443      9861.9903      170005.27      43.968751      43.968751      87.937503          16000 
    275000   3168.2152      99143.254      1710.05        98795.586      99391.516      99242.661     -1224.4978      23.607847      2359.9671      6551.9738      3171.2423      9723.2161      169754.17      43.947093      43.947093      87.894186          16000 
    276000   3163.6485      98646.111      1716.4975      96470.552      98725.494      100742.29     -123.6521      -1413.8124      793.1036       6542.5297      3230.5162      9773.0459      169860.78      43.956291      43.956291      87.912582          16000 
    277000   3209.8702      99235.421      1722.9422      100075.15      98786.135      98844.976      275.09754      113.77193     -1953.5298      6638.1176      3195.7155      9833.8332      169858         43.956051      43.956051      87.912102          16000 
    278000   3199.9158      100240.89      1729.3869      100223.67      101430.92      99068.073      678.88221     -592.80047      1261.2143      6617.5316      3334.058       9951.5896      169900.35      43.959704      43.959704      87.919408          16000 
    279000   3231.1295      102485.79      1735.8416      102971.92      102314.57      102170.87     -497.51491     -543.21166      1247.1889      6682.0827      3147.9945      9830.0771      169600.71      43.933846      43.933846      87.867692          16000 
    280000   3247.2914      100006.54      1742.2942      99828.725      100044.83      100146.07      1000.8329     -2027.5465     -2313.2316      6715.506       3230.4028      9945.9088      169883.69      43.958267      43.958267      87.916533          16000 
    281000   3227.942       99625.449      1748.7542      100261.47      99326.3        99288.579      1402.6647      233.5632       1493.2043      6675.4909      3237.8362      9913.327       169906.19      43.960208      43.960208      87.920416          16000 
    282000   3180.5541      100582.15      1755.2122      100416.71      100764.22      100565.52      41.259958      1580.7697     -1360.5658      6577.491       3303.6679      9881.1589      169799.06      43.950966      43.950966      87.901932          16000 
    283000   3163.3693      98223.124      1761.6696      97748.059      98999.856      97921.456      521.81982     -910.16841      73.329684      6541.9522      3190.893       9732.8452      169808.35      43.951768      43.951768      87.903536          16000 
    284000   3218.1332      97662.47       1768.1238      96114.313      98353.266      98519.833     -9.547896       712.70097     -6.4622229      6655.2058      3250.9499      9906.1557      170014.76      43.969569      43.969569      87.939138          16000 
    285000   3160.8247      99787.591      1774.5774      99084.545      101050.84      99227.394     -482.22422     -130.01773      450.30931      6536.6899      3186.0466      9722.7365      169837.54      43.954286      43.954286      87.908572          16000 
[...]
   3930000   3156.2991      96863.602      6579.3832      89368.492      86697.974      114524.34     -1342.4442      796.84501     -1795.769       6527.3309      7686.5418      14213.873      180170.72      44.521267      44.521267      90.89692           16000 
   3931000   3128.4717      100608.59      6586.445       92479.053      90167.781      119178.93      105.03337     -847.6731      -1744.2185      6469.7828      7732.8988      14202.682      180342.32      44.535398      44.535398      90.92577           16000 
   3932000   3149.4429      101019.84      6593.5033      94667.529      90603.133      117788.86      49.586723      1568.0885      282.09092      6513.152       7701.1392      14214.291      180155.77      44.520036      44.520036      90.894407          16000 
   3933000   3135.8302      102975.58      6600.5649      96242.704      91049.418      121634.62      1063.424      -774.68204     -234.58593      6485.0006      7756.2686      14241.269      179717.44      44.483901      44.483901      90.82063           16000 
   3934000   3152.3758      102210.58      6607.6299      92587.653      93163.544      120880.53     -1159.9923      861.04193     -2150.6255      6519.2173      7704.8581      14224.075      179985.98      44.506045      44.506045      90.865842          16000 
   3935000   3137.7838      99968.236      6614.6914      92414.187      89050.226      118440.29     -1837.1583     -982.65433      2025.1627      6489.0406      7723.1028      14212.143      180166.61      44.52093       44.52093       90.89623           16000 
   3936000   3163.5283      98037.247      6621.7575      89888.679      87594.019      116629.04      1045.0608     -1954.0316      682.22414      6542.2811      7666.3076      14208.589      180226.97      44.5259        44.5259        90.906379          16000 
   3937000   3120.1244      102362.04      6628.8214      92606.037      91684.654      122795.42     -962.47162     -2124.0592     -1296.1629      6452.5205      7766.9014      14219.422      180048.54      44.511201      44.511201      90.876369          16000 
   3938000   3140.0681      99258.927      6635.883       91443.219      89186.641      117146.92     -1840.5863      264.16596      3264.8256      6493.7646      7714.4422      14208.207      180215.88      44.524987      44.524987      90.904514          16000 
   3939000   3129.7389      98809.195      6642.9437      90205.003      87281.717      118940.86      1104.5923      3657.3611      1574.6579      6472.4035      7739.5378      14211.941      180148.86      44.519467      44.519467      90.893243          16000 
   3940000   3133.9785      102726.6       6650.0033      97010.674      91679.354      119489.77     -49.007964     -3595.8871     -242.84435      6481.1711      7755.574       14236.745      179751.92      44.486745      44.486745      90.826438          16000 
   3941000   3148.5861      101052.4       6657.0588      94640.8        89591.262      118925.13      121.19139      2637.0033     -1484.8258      6511.3801      7707.0145      14218.395      180042.07      44.510668      44.510668      90.87528           16000 
   3942000   3138.9541      96636.282      6664.1137      91402.855      83500.623      115005.37      2149.1614      1653.7535     -1521.1846      6491.4608      7703.9413      14195.402      180402.09      44.540317      44.540317      90.935812          16000 
   3943000   3114.9529      97966.679      6671.1672      88557.749      87530.613      117811.67      580.90293      649.1987      -1397.651       6441.8255      7768.3763      14210.202      180163.44      44.520668      44.520668      90.895696          16000 
   3944000   3143.9379      96889.072      6678.2347      89330.456      86009.044      115327.72      2974.0524     -62.069431      256.97764      6501.7675      7691.569       14193.337      180438.09      44.54328       44.54328       90.941862          16000 
   3945000   3138.7913      100784.11      6685.3118      92965.329      90361.95       119025.04     -292.88919      687.90174     -2085.4854      6491.1242      7727.6029      14218.727      180034.53      44.510047      44.510047      90.874012          16000 
   3946000   3115.629       98302.974      6692.367       91114.748      85787.547      118006.63     -1231.2337     -81.639014     -2046.5222      6443.2238      7766.9667      14210.191      180155.21      44.51999       44.51999       90.894312          16000 
   3947000   3131.315       97781.292      6699.4254      89693.692      87830.796      115819.39     -184.1259       1198.7573      671.21646      6475.6629      7731.418       14207.081      180207.71      44.524314      44.524314      90.90314           16000 
   3948000   3135.7685      95094.677      6706.4937      86806.193      85380.996      113096.84      1924.9719      620.60255     -3014.9992      6484.8729      7701.4413      14186.314      180531.34      44.550952      44.550952      90.957525          16000 
   3949000   3121.1612      100516.91      6713.5541      91745.897      91395.022      118409.83      1871.6887     -1697.1692      3379.1858      6454.6646      7744.2302      14198.895      180318.12      44.533405      44.533405      90.921702          16000 
   3950000   3145.1981      101523.21      6720.611       92460.695      90497.82       121611.1      -413.88721     -1128.9732     -3652.5092      6504.3737      7705.9959      14210.37       180119.76      44.51707       44.51707       90.88835           16000 
   3951000   3136.6791      103667.06      6727.6683      96685.499      92805.078      121510.6       1458.4039      2857.6662      1983.3818      6486.756       7745.243       14231.999      179762.58      44.487624      44.487624      90.828232          16000 
   3952000   3135.0568      103793.28      6734.7269      95192.743      94070.85       122116.26     -1162.7309      1722.3669      743.75197      6483.4011      7726.5837      14209.985      180109.35      44.516212      44.516212      90.886598          16000 
   3953000   3124.3859      101225.21      6741.7818      94018.028      90139.085      119518.52     -634.4767      -270.103        4209.1033      6461.3334      7738.5108      14199.844      180269.75      44.529423      44.529423      90.913572          16000 
   3954000   3108.7732      101724.95      6748.8458      92599.038      91156.193      121419.61      902.81547     -727.9282       1060.432       6429.0457      7780.0105      14209.056      180116.06      44.516765      44.516765      90.887728          16000 
   3955000   3129.8692      101630.9       6755.9025      94793.79       90541.621      119557.29      3254.1878      2408.1637      698.71911      6472.673       7749.631       14222.304      179906.14      44.499464      44.499464      90.852404          16000 
   3956000   3162.4096      100074.23      6762.9669      91089.594      92126.314      117006.79     -298.94005     -1162.6466      1827.862       6539.9676      7675.0444      14215.012      180021.16      44.508945      44.508945      90.871762          16000 
   3957000   3176.4121      102361.31      6770.0182      92385.672      91173.36       123524.9      -2255.9887      49.226709      1416.1665      6568.9251      7643.115       14212.04       180062.44      44.512347      44.512347      90.878707          16000 
   3958000   3126.9778      99586.237      6777.0686      92258.527      89801.724      116698.46      2637.3478     -462.23921      256.08996      6466.6935      7726.3625      14193.056      180357.04      44.536609      44.536609      90.928242          16000 
   3959000   3166.4471      101489.56      6784.1202      95289.468      89805.492      119373.72     -1080.5325     -33.760035     -4031.3082      6548.3173      7678.6664      14226.984      179796.96      44.49046       44.49046       90.834022          16000 
   3960000   3141.6623      102152.61      6791.1824      91577.708      94142.689      120737.45     -2240.2862     -2219.9971      433.64299      6497.0616      7720.7047      14217.766      179938.39      44.502122      44.502122      90.857833          16000 
   3961000   3122.7476      99651.966      6798.236       91324.27       88769.045      118862.58     -2312.8637      2134.7331     -2878.2083      6457.9453      7724.7453      14182.691      180486.15      44.547234      44.547234      90.949935          16000 
   3962000   3156.5643      99824.946      6805.2967      92060.944      87313.54       120100.35      2542.0754      2434.9944     -2164.072       6527.8794      7696.822       14224.701      179802.2       44.490892      44.490892      90.834905          16000 
   3963000   3147.0118      99870.775      6812.3498      90453.259      89833.087      119325.98     -1218.0346      3011.9078      2295.7524      6508.1244      7689.2181      14197.342      180236.07      44.52665       44.52665       90.90791           16000 
   3964000   3149.0546      97218.046      6819.409       87057.986      91117.236      113478.92     -732.35929     -814.95409     -398.42682      6512.349       7665.236       14177.585      180542.55      44.551874      44.551874      90.959407          16000 
   3965000   3159.5618      96116.604      6826.4757      86427.361      86882.78       115039.67     -1039.6938     -523.11947     -437.18308      6534.0782      7646.4752      14180.553      180499.74      44.548352      44.548352      90.952217          16000 
   3966000   3170.6418      98025.371      6833.5227      88609.378      88311.247      117155.49     -987.24061     -1262.0407      2588.2149      6556.992       7625.6313      14182.623      180452.09      44.544432      44.544432      90.944214          16000 
   3967000   3165.8721      99534.341      6840.5768      89000.463      93045.183      116557.38     -382.23474      1045.7388      1201.9261      6547.1282      7647.1042      14194.232      180254.5       44.528167      44.528167      90.911007          16000 
   3968000   3173.8731      105345.68      6847.6361      97544.978      95283.122      123208.94      882.39308     -1260.9885      2435.1832      6563.6745      7654.9141      14218.589      179861.82      44.495809      44.495809      90.844943          16000 
   3969000   3135.7297      102004.8       6854.6926      94199.339      91337          120478.05      1554.0472     -2090.3055      1862.9132      6484.7927      7719.7608      14204.554      180085.78      44.51427       44.51427       90.882634          16000 
   3970000   3144.405       101148.14      6861.753       93137.796      91328.863      118977.77      421.60128     -1206.1993     -809.14351      6502.7336      7712.6874      14215.421      179909.94      44.499777      44.499777      90.853044          16000 
   3971000   3107.7417      98057.695      6868.8094      89228.76       88860.513      116083.81     -677.55823      2068.5688      1487.54        6426.9125      7756.29        14183.202      180421.29      44.541897      44.541897      90.939039          16000 
   3972000   3147.8889      104967.64      6875.8652      97043.853      96020.093      121838.97     -1302.9167      426.42894      913.09798      6509.9383      7715.4031      14225.341      179753.31      44.48686       44.48686       90.826672          16000 
   3973000   3185.0034      95875.643      6882.9218      87141.786      85865.727      114619.42     -560.25771     -2347.7425      1725.4326      6586.6923      7578.0816      14164.774      180719.45      44.56642       44.56642       90.989105          16000 
   3974000   3125.177       101484.71      6889.983       92123.12       92198.883      120132.12     -450.27684      1633.3247     -2060.7335      6462.9693      7749.8056      14212.775      179945.22      44.502685      44.502685      90.858982          16000 
   3975000   3129.0399      95684.641      6897.0438      86059.386      86327.235      114667.3      -1393.7344      1357.7926     -1469.4495      6470.9579      7701.3546      14172.312      180591.39      44.555891      44.555891      90.967609          16000 
   3976000   3152.6051      99301.596      6904.1035      94568.703      87798.518      115537.57     -9.6168785      1287.9822      845.1119       6519.6917      7683.8318      14203.523      180106.15      44.515948      44.515948      90.88606           16000 
   3977000   3140.9092      100155.01      6911.1567      90103.803      92451.109      117910.1      -2240.3991      459.98573     -3331.4226      6495.5041      7697.9842      14193.488      180264.15      44.528962      44.528962      90.912629          16000 
   3978000   3142.0413      98054.768      6918.2169      88389.918      88515.135      117259.25      880.18432     -1662.1799      2966.0147      6497.8453      7689.0487      14186.894      180360.01      44.536854      44.536854      90.928742          16000 
   3979000   3152.5901      99974.975      6925.2752      89516.864      91358.379      119049.68      1263.568       695.3787      -803.23678      6519.6606      7666.6607      14186.321      180353.57      44.536323      44.536323      90.927659          16000 
   3980000   3149.0428      100356.68      6932.3359      89906.957      91831.033      119332.05     -1734.7883     -710.30632     -216.35294      6512.3247      7686.5177      14198.842      180139.72      44.518714      44.518714      90.891707          16000 
   3981000   3127.9759      101335.77      6939.3938      91273.559      93528.274      119205.48      421.58046      2174.4384     -1087.2291      6468.7575      7733.5219      14202.279      180091.19      44.514716      44.514716      90.883545          16000 
   3982000   3130.75        101034.89      6946.4461      91410.568      93923.494      117770.59      458.73361     -524.95255      768.38845      6474.4945      7737.6454      14212.14       179923.72      44.500914      44.500914      90.855365          16000 
   3983000   3136.331       97146.173      6953.5013      85019.364      89755.431      116663.72     -571.2589      -538.69739     -787.92086      6486.0363      7694.0627      14180.099      180439.88      44.543427      44.543427      90.942163          16000 
   3984000   3169.4374      95884.712      6960.5523      87199.799      86388.233      114066.1       1463.6155     -416.93101      647.61356      6554.5014      7616.9245      14171.426      180581.93      44.555113      44.555113      90.96602           16000 
   3985000   3123.2759      97464.269      6967.6065      90702.27       85862.17       115828.37     -2584.01        700.56926      2218.9561      6459.0377      7723.4232      14182.461      180409.36      44.540915      44.540915      90.937034          16000 
   3986000   3148.4601      101050.43      6974.6596      94029.381      91701.458      117420.45      1565.8643     -1607.9785     -3350.8485      6511.1196      7707.111       14218.231      179830.97      44.493265      44.493265      90.83975           16000 
   3987000   3155.0621      100092.34      6981.7149      89684.016      91316.988      119276        -615.59863      1534.0248      1475.7551      6524.7727      7656.7815      14181.554      180409.88      44.540959      44.540959      90.937123          16000 
   3988000   3158.1505      100075.42      6988.775       89793.923      91391.898      119040.43     -672.13385     -2787.389       1478.2057      6531.1597      7665.2572      14196.417      180159.46      44.52034       44.52034       90.895027          16000 
   3989000   3146.6942      99189.2        6995.8349      90453.626      88200.253      118913.72      114.98589      1777.1986     -570.45012      6507.4677      7687.1362      14194.604      180170.48      44.521248      44.521248      90.89688           16000 
   3990000   3143.6593      100699.09      7002.8847      90105.982      91044.26       120947.02     -1455.6759     -220.71815      1546.5988      6501.1915      7689.9086      14191.1        180218.49      44.525202      44.525202      90.904954          16000 
   3991000   3139.4732      95805.228      7009.9404      85567.841      86317.925      115529.92      1642.8764      1858.0821     -1899.5948      6492.5343      7676.3889      14168.923      180579.32      44.554898      44.554898      90.965582          16000 
   3992000   3132.8416      99529.869      7016.9881      89621.287      89358.583      119609.74      484.15936     -727.8083       4106.3103      6478.8199      7699.1141      14177.934      180431.95      44.542774      44.542774      90.940829          16000 
   3993000   3166.6161      100535.8       7024.0427      90668.941      93976.143      116962.32     -87.162388      2492.0589     -890.08123      6548.6669      7656.4336      14205.1        179994.97      44.506787      44.506787      90.867355          16000 
   3994000   3124.8951      97626.285      7031.0961      89173.876      87551.393      116153.59     -602.8508      -3491.4732     -1810.0107      6462.3864      7695.0525      14157.439      180726.02      44.56696       44.56696       90.990208          16000 
   3995000   3180.0442      101575.27      7038.1453      90876.053      93728.8        120120.97     -695.14917     -5460.5864      200.30436      6576.4365      7631.3492      14207.786      179907.03      44.499537      44.499537      90.852554          16000 
   3996000   3161.5998      97845.957      7045.202       88977.755      86966.94       117593.18     -2119.3428      2470.271      -1034.7734      6538.293       7639.6291      14177.922      180381.85      44.538651      44.538651      90.932412          16000 
   3997000   3153.8775      101520.78      7052.2675      91404.5        93016.439      120141.4       22.666126     -1994.2051      1835.0043      6522.3229      7658.5361      14180.859      180330.4       44.534416      44.534416      90.923765          16000 
   3998000   3164.9709      97685.985      7059.3322      89506.985      86741.422      116809.55     -149.25425      1440.2946     -412.89425      6545.2644      7624.081       14169.345      180505.32      44.548811      44.548811      90.953155          16000 
   3999000   3137.9174      100130.71      7066.3906      88893.039      90284.254      121214.85      2304.6        -1224.3351      1324.5147      6489.3169      7700.2789      14189.596      180185.88      44.522517      44.522517      90.89947           16000 
   4000000   3151.7832      99704.055      7073.4521      91721.431      92016.76       115373.97     -53.306718      788.52949      123.48485      6517.9918      7662.734       14180.726      180322.94      44.533802      44.533802      90.922512          16000 
Loop time of 7073.45 on 8 procs for 1000000 steps with 16000 atoms

Performance: 6.107 ns/day, 3.930 hours/ns, 141.374 timesteps/s
62.8% CPU use with 1 MPI tasks x 8 OpenMP threads

MPI task timing breakdown:
Section |  min time  |  avg time  |  max time  |%varavg| %total
---------------------------------------------------------------
Pair    | 6766.1     | 6766.1     | 6766.1     |   0.0 | 95.66
Neigh   | 10.881     | 10.881     | 10.881     |   0.0 |  0.15
Comm    | 51.413     | 51.413     | 51.413     |   0.0 |  0.73
Output  | 1.5065     | 1.5065     | 1.5065     |   0.0 |  0.02
Modify  | 215.4      | 215.4      | 215.4      |   0.0 |  3.05
Other   |            | 28.12      |            |       |  0.40

Nlocal:          16000 ave       16000 max       16000 min
Histogram: 1 0 0 0 0 0 0 0 0 0
Nghost:          13262 ave       13262 max       13262 min
Histogram: 1 0 0 0 0 0 0 0 0 0
Neighs:              0 ave           0 max           0 min
Histogram: 1 0 0 0 0 0 0 0 0 0
FullNghs:  1.33603e+06 ave 1.33603e+06 max 1.33603e+06 min
Histogram: 1 0 0 0 0 0 0 0 0 0

Total # of neighbors = 1336028
Ave neighs/atom = 83.50175
Neighbor list builds = 29903
Dangerous builds = 0
Total wall time: 7:14:58
