
atom_style atomic
units metal
boundary p p p
#atom_modify sort 0 0.0
newton on

read_data data.lammps
Reading data file ...
  triclinic box = (0 0 0) to (4.3790145 4.3790145 4.3790145) with tilt (-0 0 0)
  1 by 1 by 1 MPI processor grid
  reading atoms ...
  8 atoms
  read_data CPU = 0.003 seconds
replicate 10 10 20
Replicating atoms ...
  triclinic box = (0 0 0) to (43.790145 43.790145 87.58029) with tilt (-0 0 0)
  1 by 1 by 1 MPI processor grid
  16000 atoms
  replicate CPU = 0.017 seconds

### interactions

pair_style flare
pair_coeff * * lmp.flare
Reading potential file lmp.flare with DATE: Thu

# compute unc all flare/std/atom L_inv_lmp.flare sparse_desc_lmp.flare
# compute MaxUnc all reduce max c_unc

mass 1 12.011000
mass 2 28.085000

thermo_style custom step temp press cpu pxx pyy pzz pxy pxz pyz ke pe etotal vol lx ly lz atoms    #c_MaxUnc
thermo 1000
timestep 0.0005
restart 100000 restart_*.dat

#################### Equilibrate at P and T_es ##############################
velocity all create $T 41928459 rot yes dist gaussian
velocity all create 2800 41928459 rot yes dist gaussian
fix mom all momentum 1000 linear 1 1 1 angular

fix 1 all npt temp $T $T $(100.0*dt) iso $P $P $(1000.0*dt)
fix 1 all npt temp 2800 $T $(100.0*dt) iso $P $P $(1000.0*dt)
fix 1 all npt temp 2800 2800 $(100.0*dt) iso $P $P $(1000.0*dt)
fix 1 all npt temp 2800 2800 0.050000000000000002776 iso $P $P $(1000.0*dt)
fix 1 all npt temp 2800 2800 0.050000000000000002776 iso 900000 $P $(1000.0*dt)
fix 1 all npt temp 2800 2800 0.050000000000000002776 iso 900000 900000 $(1000.0*dt)
fix 1 all npt temp 2800 2800 0.050000000000000002776 iso 900000 900000 0.5
dump 1 all custom 1000 1equil.bin id type x y z vx vy vz
run   10000 # report performance
Neighbor list info ...
  update every 1 steps, delay 10 steps, check yes
  max neighbors/atom: 2000, page size: 100000
  master list distance cutoff = 6
  ghost atom cutoff = 6
  binsize = 6, bins = 8 8 15
  1 neighbor lists, perpetual/occasional/extra = 1 0 0
  (1) pair flare/kk, perpetual
      attributes: full, newton on, kokkos_device
      pair build: full/bin/kk/device
      stencil: full/bin/3d
      bin: kk/device
Per MPI rank memory allocation (min/avg/max) = 15.9 | 15.9 | 15.9 Mbytes
   Step          Temp          Press           CPU            Pxx            Pyy            Pzz            Pxy            Pxz            Pyz           KinEng         PotEng         TotEng         Volume           Lx             Ly             Lz          Atoms   
         0   2800           55537.333      0              55258.481      55664.454      55689.064     -388.53912      174.99747     -439.29551      5790.4926     -4109.4047      1681.0878      167941.93      43.790145      43.790145      87.58029           16000 
      1000   2816.9327      897104.94      6.6171386      896364.51      896059.43      898890.89     -772.14393     -1888.3039      2935.5943      5825.51        9825.0947      15650.605      132247.56      40.437648      40.437648      80.875296          16000 
      2000   2756.4835      898955.76      13.223813      899770.7       898788.29      898308.28     -78.751141     -5700.5672     -2161.7428      5700.499       9543.7067      15244.206      132060.57      40.418581      40.418581      80.837162          16000 
      3000   2806.6743      899358.89      19.827628      900006.03      898786.08      899284.56      613.14075      3241.5291     -1227.3475      5804.2952      9751.3286      15555.624      132068.86      40.419426      40.419426      80.838852          16000 
      4000   2786.785       898541.91      26.434612      896609.6       897348.95      901667.19      119.30672      2711.6982     -2280.9283      5763.1635      9582.0526      15345.216      131989.27      40.411305      40.411305      80.82261           16000 
      5000   2795.6777      898474.63      33.036551      898216         900009.35      897198.53      351.82774      3856.3248      3997.0269      5781.554       9784.6485      15566.202      132000.42      40.412443      40.412443      80.824885          16000 
      6000   2800.4774      899947.95      39.640533      898951.85      900691.19      900200.81      501.82408     -1378.0376     -530.67957      5791.4799      9628.7379      15420.218      131936.9       40.405959      40.405959      80.811919          16000 
      7000   2807.5254      899421.88      46.242311      898053.36      898706.09      901506.18     -1375.6905     -855.23802      2790.2606      5806.0554      9748.003       15554.058      131989.93      40.411373      40.411373      80.822746          16000 
      8000   2781.8978      900549.54      52.84525       901689.43      900274.39      899684.8       3119.9874     -856.76005      778.55855      5753.0566      9689.4911      15442.548      131960.48      40.408367      40.408367      80.816734          16000 
      9000   2825.0147      901860.11      59.452183      902448.14      901213.6       901918.58      1564.5135      1555.309       424.56089      5842.2237      9720.1856      15562.409      131984.6       40.410828      40.410828      80.821657          16000 
     10000   2802.2809      903196.1       66.059128      906799.93      901742.15      901046.21     -519.21508      3561.9283     -1012.612       5795.2095      9686.4137      15481.623      131854.69      40.397565      40.397565      80.795131          16000 
Loop time of 66.0591 on 8 procs for 10000 steps with 16000 atoms

Performance: 6.540 ns/day, 3.670 hours/ns, 151.379 timesteps/s
61.7% CPU use with 1 MPI tasks x 8 OpenMP threads

MPI task timing breakdown:
Section |  min time  |  avg time  |  max time  |%varavg| %total
---------------------------------------------------------------
Pair    | 63.035     | 63.035     | 63.035     |   0.0 | 95.42
Neigh   | 0.062853   | 0.062853   | 0.062853   |   0.0 |  0.10
Comm    | 0.30342    | 0.30342    | 0.30342    |   0.0 |  0.46
Output  | 0.011472   | 0.011472   | 0.011472   |   0.0 |  0.02
Modify  | 2.3502     | 2.3502     | 2.3502     |   0.0 |  3.56
Other   |            | 0.2962     |            |       |  0.45

Nlocal:          16000 ave       16000 max       16000 min
Histogram: 1 0 0 0 0 0 0 0 0 0
Nghost:          14638 ave       14638 max       14638 min
Histogram: 1 0 0 0 0 0 0 0 0 0
Neighs:              0 ave           0 max           0 min
Histogram: 1 0 0 0 0 0 0 0 0 0
FullNghs:  1.77124e+06 ave 1.77124e+06 max 1.77124e+06 min
Histogram: 1 0 0 0 0 0 0 0 0 0

Total # of neighbors = 1771238
Ave neighs/atom = 110.70238
Neighbor list builds = 148
Dangerous builds = 0
run  990000
Per MPI rank memory allocation (min/avg/max) = 16.45 | 16.45 | 16.45 Mbytes
   Step          Temp          Press           CPU            Pxx            Pyy            Pzz            Pxy            Pxz            Pyz           KinEng         PotEng         TotEng         Volume           Lx             Ly             Lz          Atoms   
     10000   2802.2809      903196.1       0              906799.93      901742.15      901046.21     -519.21508      3561.9283     -1012.612       5795.2095      9686.4137      15481.623      131854.69      40.397565      40.397565      80.795131          16000 
     11000   2811.5589      904540.99      6.6062766      906455.22      904613.05      902554.7       1696.2972     -998.67253     -2362.2853      5814.3967      9839.6198      15654.017      131811.05      40.393109      40.393109      80.786217          16000 
     12000   2786.645       901191.98      13.212888      901170.54      902611.67      899793.73     -2228.4232     -547.42698     -1157.0432      5762.874       9707.014       15469.888      131889.36      40.401106      40.401106      80.802212          16000 
     13000   2789.8441      897035.79      19.817622      898262.83      895446.32      897398.22      1029.5945     -1296.6393      4570.3607      5769.4899      9715.5227      15485.013      132000.44      40.412445      40.412445      80.82489           16000 
     14000   2771.0422      896678.5       26.424816      896049.51      898359.29      895626.7      -3597.0536     -1633.6571      1648.9894      5730.6068      9674.2014      15404.808      132012.4       40.413665      40.413665      80.82733           16000 
     15000   2806.33        896773.3       33.03294       896291.44      898323.74      895704.72     -1578.5716      1383.9649      128.37925      5803.5832      9682.2547      15485.838      132014.62      40.413892      40.413892      80.827783          16000 
     16000   2788.4314      896418.28      39.639644      899527.53      895964.87      893762.46     -1783.3707     -1940.2313     -287.46406      5766.5684      9617.1846      15383.753      132033.85      40.415855      40.415855      80.831709          16000 
     17000   2787.5792      901619.72      46.244324      901192.71      903702.69      899963.77     -1977.4839      1878.0858     -5793.2841      5764.8059      9743.8711      15508.677      131942.19      40.4065        40.4065        80.813             16000 
     18000   2800.332       905748.73      52.849872      906303.53      905474.5       905468.14     -1594.9081     -767.94984      1726.2913      5791.1792      9711.7186      15502.898      131804.59      40.392448      40.392448      80.784897          16000 
     19000   2805.411       905186.54      59.451613      905922.56      906352.5       903284.55     -1065.6608      4069.1304     -118.31536      5801.6828      9859.3699      15661.053      131812.23      40.393229      40.393229      80.786458          16000 
     20000   2795.58        901378.71      66.05378       902422.4       900951.05      900762.67      377.26132      746.35119     -1800.4815      5781.3519      9722.1447      15503.497      131910.45      40.403259      40.403259      80.806518          16000 
     21000   2821.3513      898190.72      72.65618       898165.38      897194.79      899212         268.34032      1017.6344     -2727.6897      5834.6478      9649.0879      15483.736      131996.49      40.412042      40.412042      80.824083          16000 
     22000   2772.2707      896697.93      79.257079      896413.69      896699.89      896980.22      1435.1638      638.87185      311.65462      5733.1474      9711.9534      15445.101      132025.64      40.415016      40.415016      80.830032          16000 
     23000   2793.3886      897542.23      85.860295      896669.69      897442.92      898514.09     -2628.9202      2947.3207     -1317.4223      5776.82        9714.8349      15491.655      132017.93      40.41423       40.41423       80.828459          16000 
     24000   2809.5643      901574.71      92.466388      901426.68      901330.77      901966.67     -878.17857      1296.0435     -3877.7012      5810.2719      9727.7575      15538.029      131891.59      40.401334      40.401334      80.802668          16000 
     25000   2810.9645      908489.77      99.072728      907164.23      908795.33      909509.75      7290.304       1261.5106      111.16658      5813.1676      9886.5786      15699.746      131745.57      40.386419      40.386419      80.772838          16000 
     26000   2792.3506      903380.86      105.67833      903218.17      904676.08      902248.33     -5963.9267      965.62011     -2488.6285      5774.6733      9770.2898      15544.963      131867.06      40.398829      40.398829      80.797657          16000 
     27000   2801.2719      900795.34      112.2861       900855.57      900019.34      901511.12     -1757.2886      1638.2953     -2353.4929      5793.123       9770.4559      15563.579      131918.61      40.404093      40.404093      80.808185          16000 
     28000   2777.4697      901564.98      118.89329      903548.49      900206.4       900940.05      1528.3086     -949.86791      898.63197      5743.8991      9799.6293      15543.528      131885.57      40.400719      40.400719      80.801437          16000 
     29000   2811.75        897968.51      125.49784      899165.2       897023.32      897717.03      35.996029      1373.2311     -178.77467      5814.792       9669.2134      15484.005      131980.2       40.410379      40.410379      80.820758          16000 
     30000   2799.4633      894483.68      132.10448      893753.23      894141.37      895556.43      4000.0397      1754.0963      1008.2181      5789.3826      9651.5739      15440.956      132063.09      40.418838      40.418838      80.837675          16000 
     31000   2799.8222      894255.95      138.7104       893847.22      894530.57      894390.06      167.16666      1629.4348      1952.533       5790.1248      9662.1903      15452.315      132092.29      40.421817      40.421817      80.843633          16000 
     32000   2781.5998      898657.76      145.31624      897688.7       899139.94      899144.63     -576.27365      1885.0828      3738.0601      5752.4403      9685.9124      15438.353      131957.84      40.408097      40.408097      80.816194          16000 
     33000   2791.0779      901936.25      151.91969      901169.02      902544.16      902095.57      3595.0909     -657.41318      3622.9754      5772.0414      9790.9545      15562.996      131873.48      40.399485      40.399485      80.798969          16000 
     34000   2764.0439      903000.64      158.52066      902253.54      902511.22      904237.15     -2197.5961     -5825.3617      5783.0121      5716.1341      9836.2677      15552.402      131813.28      40.393336      40.393336      80.786672          16000 
     35000   2791.7875      902939.82      165.12374      902259.71      902876.79      903682.97     -5353.5916      175.26808      898.89059      5773.5088      9788.6442      15562.153      131860.15      40.398123      40.398123      80.796246          16000 
     36000   2770.4199      902607.35      171.72505      903591.35      900805.61      903425.11     -3831.0341      5271.253      -739.23358      5729.3199      9782.1211      15511.441      131896.67      40.401853      40.401853      80.803705          16000 
     37000   2804.0694      898189.25      178.32974      898917.76      897763.21      897886.79     -825.98942      124.78412      3505.0175      5798.9081      9701.4059      15500.314      131993.08      40.411694      40.411694      80.823388          16000 
     38000   2761.1897      893243.04      184.93509      895928.61      892669.18      891131.34     -2194.5021      4267.6531     -2616.6186      5710.2316      9622.8422      15333.074      132106.09      40.423224      40.423224      80.846448          16000 
     39000   2835.9189      894453.75      191.53986      894643.52      896326.34      892391.41      1418.2198      3644.9958      2630.8261      5864.7741      9602.8365      15467.611      132106.62      40.423278      40.423278      80.846555          16000 
     40000   2770.3893      900617.96      198.14666      901202.54      899763.55      900887.78     -2157.1188      3162.2678     -205.80892      5729.2566      9736.718       15465.975      131918.62      40.404094      40.404094      80.808187          16000 
     41000   2809.5597      902227.49      204.75343      902984.02      901483.91      902214.55     -1367.9584     -2994.6095      313.78514      5810.2624      9808.1128      15618.375      131872.56      40.399391      40.399391      80.798782          16000 
     42000   2771.8162      904699.62      211.36058      904798.08      904547.75      904753.01      4010.381       337.87513      39.843439      5732.2074      9824.3451      15556.553      131830.26      40.39507       40.39507       80.79014           16000 
     43000   2821.2573      899993.53      217.9719       901138.68      899631.97      899209.95      1656.4921      3738.501       2169.5553      5834.4534      9684.2088      15518.662      131898.41      40.40203       40.40203       80.804061          16000 
     44000   2813.0641      896858.55      224.58052      897152.85      896070.17      897352.65     -2924.4478      373.97463     -2013.0997      5817.5095      9686.1281      15503.638      132035.15      40.415987      40.415987      80.831974          16000 
     45000   2780.4776      895311.04      231.18882      893951.94      896327.34      895653.83     -198.18414     -1218.9788     -610.07556      5750.1197      9648.537       15398.657      132043.41      40.41683       40.41683       80.83366           16000 
     46000   2799.4865      894820.42      237.80075      894614.93      895152.59      894693.75      2899.6745     -2930.2536      5930.3311      5789.4306      9709.9168      15499.347      132039.68      40.41645       40.41645       80.832899          16000 
     47000   2833.5773      903483.95      244.41077      904079.14      902069.78      904302.93     -364.86692     -2323.4071      810.27272      5859.9315      9740.6284      15600.56       131867.77      40.398901      40.398901      80.797803          16000 
     48000   2796.9316      906021.06      251.02053      908286.62      905865.07      903911.5       3529.9716     -109.04304     -1688.5651      5784.1471      9790.5245      15574.672      131802.45      40.39223       40.39223       80.78446           16000 
     49000   2801.9773      901476.1       257.63127      900590.87      902750.56      901086.86     -1555.0392     -2163.3309      2546.1312      5794.5816      9807.0492      15601.631      131903.91      40.402592      40.402592      80.805183          16000 
     50000   2816.4455      899341.18      264.24318      898787.33      899988.28      899247.91      2054.8171      412.87946      1914.3485      5824.5024      9613.9826      15438.485      131969.22      40.409259      40.409259      80.818518          16000 
     51000   2808.1289      897259.71      270.8544       896518.93      897238.8       898021.4      -2393.4864     -642.34299      2272.2259      5807.3035      9664.5837      15471.887      132014.59      40.413889      40.413889      80.827778          16000 
     52000   2839.623       895161.46      277.46572      893663.07      895403.62      896417.69     -3949.8302      2331.5502      991.12402      5872.4343      9652.4187      15524.853      132061.74      40.4187        40.4187        80.837399          16000 
     53000   2792.6605      896423.74      284.07734      896047.87      895161.86      898061.48      763.90565      4941.2801      744.34412      5775.3143      9648.6224      15423.937      132016.05      40.414038      40.414038      80.828076          16000 
     54000   2819.7612      903443.24      290.68784      901875.84      904743.51      903710.36      15.469626      1630.0171      386.12851      5831.3594      9741.9442      15573.304      131855.3       40.397628      40.397628      80.795257          16000 
     55000   2801.6237      903974.57      297.29796      903457.67      903609.84      904856.21      1310.6878     -1251.4795      662.75803      5793.8505      9796.8049      15590.655      131835.02      40.395557      40.395557      80.791113          16000 
     56000   2803.9608      902607.28      303.90924      901942.77      904253.18      901625.87      2112.3921      933.39044      798.68864      5798.6835      9831.0521      15629.736      131886.66      40.40083       40.40083       80.80166           16000 
     57000   2810.4421      899369.29      310.51983      898805.92      899885.44      899416.52     -5864.3759      6210.5441      857.1819       5812.0872      9680.4524      15492.54       131968.91      40.409227      40.409227      80.818454          16000 
     58000   2786.0017      894733.97      317.1314       893619.58      895933.38      894648.95     -2123.7755      1593.2011      1395.7585      5761.5436      9706.9782      15468.522      132093.07      40.421896      40.421896      80.843792          16000 
     59000   2796.3884      897528.37      323.74231      897074.51      898642.84      896867.75      421.57446     -1401.4433      3211.7419      5783.0236      9719.3402      15502.364      132042.71      40.416759      40.416759      80.833518          16000 
     60000   2791.4407      901943.13      330.35265      901486.92      901548.77      902793.7       1725.44       -1894.3114     -5539.7819      5772.7916      9689.0013      15461.793      131876.82      40.399826      40.399826      80.799652          16000 
     61000   2797.4358      901800.07      336.96442      902414.07      901834.39      901151.75     -966.73332      7271.6139      1127.1113      5785.1897      9779.3117      15564.501      131898.88      40.402078      40.402078      80.804157          16000 
     62000   2799.6305      903769.71      343.57345      903806.27      903691.66      903811.22      4119.2079      2485.4432      1510.2437      5789.7285      9756.9292      15546.658      131836.65      40.395723      40.395723      80.791446          16000 
     63000   2809.6508      899357.38      350.18502      898514.09      900164.61      899393.46      1582.2862      3986.8724     -3791.6617      5810.4507      9767.679       15578.13       131998.69      40.412266      40.412266      80.824532          16000 
     64000   2789.187       895205.87      356.79743      896196.5       895459.01      893962.11      4459.6618     -5754.6888      191.60668      5768.1309      9640.0604      15408.191      132084.05      40.420975      40.420975      80.841951          16000 
     65000   2809.7357      895869.5       363.40934      895576.5       895600.31      896431.69     -2349.9845     -6986.5129      2594.9297      5810.6263      9620.0377      15430.664      132066.76      40.419212      40.419212      80.838424          16000 
     66000   2785.9298      898935.18      370.01988      901130.17      899175.04      896500.32     -1902.026       1518.6196      467.67893      5761.3949      9762.362       15523.757      131982.93      40.410658      40.410658      80.821316          16000 
     67000   2788.8548      902726.61      376.63136      902425.37      904359.42      901395.02     -1823.2821      618.55015     -309.39734      5767.444       9751.9469      15519.391      131844.92      40.396568      40.396568      80.793137          16000 
     68000   2816.1249      904771.68      383.24189      905594.9       902860.31      905859.84      1644.727       788.28239      3369.576       5823.8394      9830.2522      15654.092      131804.84      40.392474      40.392474      80.784948          16000 
     69000   2776.2381      904125.17      389.8526       905299.5       903676.96      903399.05      531.34797      7760.0173      1999.6111      5741.3523      9770.1509      15511.503      131828.99      40.394941      40.394941      80.789881          16000 
     70000   2812.9871      897883.83      396.46364      898031.48      898276.56      897343.47     -3553.2462     -1238.8395     -585.84598      5817.3502      9737.9998      15555.35       132005.65      40.412977      40.412977      80.825953          16000 
     71000   2800.9601      899039.22      403.07638      898256.82      897134.62      901726.23     -1027.5236     -2594.4365     -2127.7842      5792.4781      9678.8557      15471.334      131979.9       40.410348      40.410348      80.820697          16000 
     72000   2824.0954      896079.47      409.68668      897640.77      893800.18      896797.47     -1400.7761      4122.0637     -2366.2111      5840.3227      9699.3114      15539.634      132064.91      40.419023      40.419023      80.838046          16000 
     73000   2796.722       898589.11      416.29925      897602.41      900868.49      897296.44      400.20871      762.62933     -553.69601      5783.7137      9697.8212      15481.535      131956.29      40.407939      40.407939      80.815878          16000 
     74000   2812.2773      903950.23      422.91011      903229.78      905292.86      903328.04     -4020.6523      576.64615      940.7681       5815.8825      9769.8911      15585.774      131831.7       40.395218      40.395218      80.790436          16000 
     75000   2808.5347      907105.77      429.52102      906469.91      909140.03      905707.38     -1597.6051      408.20134     -3146.5648      5808.1425      9822.534       15630.676      131759.23      40.387814      40.387814      80.775629          16000 
     76000   2795.0754      905262.86      436.13289      903470.34      905161.24      907157         2810.7198     -2201.6288      6487.5579      5780.3084      9755.5198      15535.828      131783.61      40.390306      40.390306      80.780611          16000 
     77000   2823.884       900319.14      442.74516      901475.9       899037.68      900443.84     -1251.6974      1434.0903      1592.4722      5839.8854      9703.7729      15543.658      131919.2       40.404153      40.404153      80.808306          16000 
     78000   2758.5277      898770.6       449.35574      899132.21      899439.3       897740.29      4086.4487      1511.9674      766.49772      5704.7265      9715.8928      15420.619      131984.15      40.410782      40.410782      80.821565          16000 
     79000   2826.7529      893293.04      455.96882      891560.45      894732.3       893586.38      3400.6253     -1142.7697     -2443.4295      5845.8184      9626.1389      15471.957      132126.8       40.425336      40.425336      80.850672          16000 
     80000   2794.7442      897172.37      462.58148      896792.43      896362.86      898361.82      3055.4126      3990.7871     -2192.0246      5779.6233      9653.3919      15433.015      132035.66      40.416039      40.416039      80.832078          16000 
     81000   2812.8386      901498.09      469.1966       902209.8       903313.01      898971.47     -3396.6821     -2242.364      -3086.1592      5817.0431      9773.7758      15590.819      131930.1       40.405265      40.405265      80.81053           16000 
     82000   2802.5626      903492.12      475.81385      903210.37      903065.15      904200.85      4492.1017      874.23959      2135.0062      5795.792       9732.2726      15528.065      131821.85      40.394212      40.394212      80.788423          16000 
     83000   2798.5106      903731.38      482.43385      904086.83      905791.69      901315.62     -4019.4524     -3413.0597     -1625.4534      5787.4124      9809.8968      15597.309      131835.62      40.395619      40.395619      80.791237          16000 
     84000   2776.2011      902341.99      489.06037      904442.76      900427.55      902155.68      2625.434      -729.4717      -3202.4538      5741.2757      9722.008       15463.284      131871.53      40.399286      40.399286      80.798571          16000 
     85000   2799.3075      899121.97      495.69469      897357.29      900654.34      899354.26      379.25631     -465.26988      4798.0005      5789.0604      9728.0847      15517.145      132014.62      40.413892      40.413892      80.827785          16000 
     86000   2773.9025      896451.86      502.32726      896140.65      896990.06      896224.87     -2850.9738      915.42645      619.21745      5736.522       9606.2963      15342.818      132017.57      40.414194      40.414194      80.828387          16000 
     87000   2798.6459      898952.49      508.96367      899432.46      898140.85      899284.18      777.9432       2491.8089     -765.56618      5787.6922      9713.0339      15500.726      131999.54      40.412354      40.412354      80.824707          16000 
     88000   2760.7941      900566.63      515.61424      902013.48      899124.57      900561.83      1721.9263      913.36518     -2321.001       5709.4135      9702.2987      15411.712      131914.35      40.403658      40.403658      80.807315          16000 
     89000   2797.9131      903998.08      522.2529       901041.98      906506.11      904446.14     -3187.2619     -3530.2368      559.97784      5786.1769      9787.9296      15574.106      131844.57      40.396532      40.396532      80.793064          16000 
     90000   2785.255       907227.23      528.88295      905092.26      909262.26      907327.16     -3475.152       1293.8953     -684.34495      5759.9995      9842.3816      15602.381      131775.33      40.38946       40.38946       80.77892           16000 
     91000   2813.3699      903493.66      535.51582      903170.9       905545.77      901764.31      569.25469      1775.9721      853.6698       5818.1419      9812.8579      15631          131869.6       40.399089      40.399089      80.798177          16000 
     92000   2764.8908      897123.18      542.15462      897741.03      898557.43      895071.08      491.8399      -17.158473     -2546.9919      5717.8856      9707.4856      15425.371      132001.52      40.412556      40.412556      80.825112          16000 
     93000   2798.1314      897079.92      548.79512      897866.58      895975.22      897397.96      1903.9289      1572.4763      21.446067      5786.6282      9724.0163      15510.644      132037.39      40.416215      40.416215      80.832431          16000 
     94000   2800.8991      897815.73      555.43602      898141.1       896823.24      898482.87      1524.1885      2251.256       366.16642      5792.3519      9730.6341      15522.986      131991.74      40.411557      40.411557      80.823114          16000 
     95000   2798.9389      901453.6       562.07681      902395.83      901396.5       900568.46     -1377.0063      957.65386     -970.43976      5788.2981      9711.6515      15499.95       131892.41      40.401418      40.401418      80.802836          16000 
     96000   2832.1237      906888.76      568.71774      907530.53      906126.34      907009.41     -625.65531     -3219.4864      4537.278       5856.9255      9842.5297      15699.455      131814.94      40.393506      40.393506      80.787011          16000 
     97000   2781.7637      906606.41      575.35599      907621.27      907491.2       904706.77      728.10976     -1244.8398      1051.08        5752.7792      9841.2011      15593.98       131748.01      40.386668      40.386668      80.773337          16000 
     98000   2770.2406      902019.12      581.97341      902192.98      902260.56      901603.82     -1777.5044      515.40863     -856.21211      5728.9491      9842.5625      15571.512      131877.01      40.399845      40.399845      80.79969           16000 
     99000   2814.968       897779.06      588.58919      897701.82      900670.26      894965.11     -518.6916      -805.52314      499.38965      5821.4468      9709.7275      15531.174      131993.09      40.411695      40.411695      80.82339           16000 
    100000   2787.4061      897194.99      595.22573      897304.78      896421.43      897858.77     -965.8849       1554.5074     -7310.052       5764.448       9663.3566      15427.805      131989.31      40.411309      40.411309      80.822618          16000 
    101000   2806.754       895382.68      601.83635      897446.18      894143.94      894557.91      3229.6163     -693.72733     -3409.8729      5804.46        9656.2587      15460.719      132032.64      40.415731      40.415731      80.831462          16000 
    102000   2755.8394      897726.14      608.4512       899520.01      895366.19      898292.22     -1285.2214     -922.44969      2238.1642      5699.1671      9633.0815      15332.249      131942.6       40.406541      40.406541      80.813083          16000 
    103000   2806.8614      900141.87      615.06371      901723.19      899490.65      899211.77     -3645.9933      394.90538      716.63799      5804.6821      9719.8139      15524.496      131934.56      40.40572       40.40572       80.811441          16000 
    104000   2801.2984      909552.24      621.67522      910240.34      908861.19      909555.2       370.6686       598.79351     -3771.0276      5793.1776      9760.7525      15553.93       131680.95      40.379815      40.379815      80.759629          16000 
    105000   2810.6864      905900.69      628.28664      905996.26      904839.7       906866.12     -1894.6465     -649.56712      4257.4089      5812.5925      9819.986       15632.578      131806.2       40.392613      40.392613      80.785226          16000 
    106000   2794.1657      901277.67      634.89777      900835.4       900794.36      902203.26      1867.3764     -1672.0382     -1481.6394      5778.4271      9702.8339      15481.261      131945.35      40.406822      40.406822      80.813645          16000 
    107000   2801.3389      899711.95      641.50616      898096.06      899250.11      901789.68     -406.33942      185.05589     -432.72074      5793.2615      9782.3074      15575.569      131968.1       40.409145      40.409145      80.818289          16000 
    108000   2795.0582      898548.93      648.11604      898321.04      899223.75      898101.99      506.34086      2620.8013     -1318.7398      5780.2727      9692.1406      15472.413      131971.42      40.409483      40.409483      80.818966          16000 
    109000   2785.7115      894588.54      654.72668      895233.24      893261.18      895271.21     -609.33427      2703.9266      4527.6104      5760.9434      9677.7597      15438.703      132069.27      40.419469      40.419469      80.838937          16000 
    110000   2804.5453      894658.72      661.33668      894088.72      895174.3       894713.16     -5320.4738      2298.0599     -6653.7335      5799.8924      9686.7299      15486.622      132099.25      40.422526      40.422526      80.845053          16000 
    111000   2808.8531      899011.07      667.94657      899210.67      899530.29      898292.24      452.76301     -1806.2722      2463.3794      5808.8011      9637.9644      15446.766      132014.04      40.413833      40.413833      80.827666          16000 
    112000   2799.1793      903153.86      674.55917      903292.26      904145.6       902023.72     -2041.7012      3392.1835      1395.6263      5788.7953      9783.1497      15571.945      131850.87      40.397175      40.397175      80.79435           16000 
    113000   2797.3878      902120.52      681.16789      902977.49      902024.49      901359.58     -420.42781     -149.80107     -1381.6295      5785.0904      9839.8614      15624.952      131882.29      40.400385      40.400385      80.800769          16000 
    114000   2791.9411      905387.06      687.77818      906091.01      904463.72      905606.43     -1474.0318      4976.7132     -996.50218      5773.8266      9822.0163      15595.843      131801.71      40.392155      40.392155      80.784309          16000 
    115000   2798.5916      900296.81      694.3893       901733.2       899447.4       899709.82     -2818.6164     -3730.0153     -1459.2574      5787.5799      9782.5577      15570.138      131944.19      40.406704      40.406704      80.813408          16000 
    116000   2807.4984      896924.89      700.99987      897100.24      896605.09      897069.33      7743.7415      1096.1382     -1896.9491      5805.9994      9697.6315      15503.631      132005.91      40.413004      40.413004      80.826007          16000 
    117000   2777.0388      895593.87      707.61115      896820.82      894368.95      895591.83      85.245634     -2889.4097      2317.3342      5743.0081      9696.1562      15439.164      132050.45      40.417548      40.417548      80.835096          16000 
    118000   2790.4413      896903.18      714.22282      896496.91      897896.58      896316.06      1716.2877      873.5651       3612.7177      5770.7249      9682.4815      15453.206      131977.37      40.410091      40.410091      80.820182          16000 
    119000   2783.3534      903094.31      720.83375      901409.16      904035.64      903838.12     -1459.4428     -1752.6921     -5073.255       5756.0669      9818.9701      15575.037      131855.64      40.397663      40.397663      80.795325          16000 
    120000   2789.9856      904952.45      727.45326      905887.3       904368.16      904601.9       493.56538     -2077.5533     -478.3892       5769.7825      9829.3498      15599.132      131811.9       40.393196      40.393196      80.786391          16000 
    121000   2776.2116      901871.78      734.07383      901447.54      903168.22      900999.58      4315.7728     -784.19017      1113.3297      5741.2974      9771.2853      15512.583      131868.17      40.398942      40.398942      80.797884          16000 
    122000   2819.5756      897988.51      740.69878      899683.59      897384.65      896897.3       1596.5527     -3835.9371      3888.1691      5830.9756      9688.1863      15519.162      132003.09      40.412715      40.412715      80.825431          16000 
    123000   2784.2628      894394.84      747.32941      894109.16      894939.4       894135.96     -2605.1604      2858.9324      828.64361      5757.9476      9640.4876      15398.435      132062.74      40.418802      40.418802      80.837604          16000 
    124000   2763.6394      896916.34      753.96562      895990.61      896251.73      898506.69      1886.5265      2681.5181      718.23044      5715.2977      9719.5038      15434.801      131974.13      40.40976       40.40976       80.81952           16000 
    125000   2807.5555      899312.38      760.64477      898139.64      897797.31      902000.2      -343.02507      1918.4922     -3479.3325      5806.1175      9743.9241      15550.042      131962.57      40.40858       40.40858       80.81716           16000 
    126000   2796.2579      904783.25      767.31525      906831.82      903240.21      904277.73      167.70588     -3823.5248     -3635.1679      5782.7538      9782.4847      15565.239      131830.75      40.39512       40.39512       80.79024           16000 
    127000   2821.856       907757.56      773.98622      906957.03      909465.92      906849.73      1843.177       792.58938     -1491.083       5835.6915      9856.1422      15691.834      131741.56      40.386009      40.386009      80.772018          16000 
    128000   2793.6325      902379.28      780.65663      902265.19      903917.67      900954.96     -131.15547      186.10277      3842.9461      5777.3243      9773.6983      15551.023      131894.08      40.401588      40.401588      80.803176          16000 
    129000   2799.5487      898423.89      787.32711      900477.07      896991.17      897803.43     -4258.3677      4342.5335      170.59323      5789.5593      9692.2706      15481.83       132017.29      40.414164      40.414164      80.828329          16000 
    130000   2814.2113      898884.18      793.995        900468.18      899128.1       897056.25     -3270.5359      94.796142      1255.8302      5819.8819      9652.4354      15472.317      131990         40.41138       40.41138       80.82276           16000 
    131000   2832.9695      899759.67      800.66962      899104.36      899579.08      900595.58     -4285.2802     -44.2396        1048.2027      5858.6746      9770.6405      15629.315      131996.76      40.41207       40.41207       80.824139          16000 
    132000   2774.1436      902826.16      807.33515      901785.75      905322.17      901370.56      1836.6185      2652.7801      970.79317      5737.0207      9788.358       15525.379      131838.25      40.395887      40.395887      80.791773          16000 
    133000   2815.0614      906493.17      813.97703      905156.44      907774.52      906548.56     -1724.3634      4127.1312      1100.382       5821.6401      9812.684       15634.324      131763.62      40.388263      40.388263      80.776526          16000 
    134000   2818.0515      902317.79      820.61906      904783.68      901374.36      900795.33     -1343.2435     -2812.8541      2350.4009      5827.8237      9745.1206      15572.944      131896.66      40.401851      40.401851      80.803703          16000 
    135000   2805.4761      898184.24      827.26233      896834.44      900735.38      896982.92     -3609.173      -553.64378      800.27278      5801.8172      9662.6096      15464.427      132009.22      40.413341      40.413341      80.826682          16000 
    136000   2789.2683      895374.87      833.9033       894096.03      896135.2       895893.39     -4248.2753      1603.2603      7535.3611      5768.2992      9718.5808      15486.88       132065.98      40.419133      40.419133      80.838266          16000 
    137000   2785.5989      897353.02      840.5452       898387.26      894723.98      898947.83      3433.0247      35.895288      4835.9877      5760.7106      9645.9818      15406.692      132013.92      40.413821      40.413821      80.827641          16000 
    138000   2808.4436      898083.24      847.18808      899899.7       898287.08      896062.95     -1878.2857     -65.417319      2845.986       5807.9541      9722.1476      15530.102      131968.46      40.409181      40.409181      80.818363          16000 
    139000   2811.1338      901334.88      853.82763      900700.85      901949.95      901353.82     -1365.6681     -3709.1208      428.96357      5813.5176      9760.6573      15574.175      131902.45      40.402442      40.402442      80.804885          16000 
    140000   2810.7045      904789.22      860.46862      904581.89      903360.15      906425.63      942.01193      2491.6832      437.09307      5812.6299      9775.3065      15587.936      131779.1       40.389845      40.389845      80.77969           16000 
    141000   2787.0453      908262.71      867.13243      909112.81      906442.89      909232.43      24.589044     -5480.748       891.49134      5763.7017      9810.9919      15574.694      131694.3       40.381179      40.381179      80.762358          16000 
    142000   2793.0345      899847.42      873.79959      900086.95      902130.17      897325.12     -2530.5834     -3013.7489     -4647.0068      5776.0877      9763.4954      15539.583      131912.28      40.403446      40.403446      80.806892          16000 
    143000   2818.3028      896804         880.47091      897973.53      895795.33      896643.14     -1533.6113     -838.33449     -2177.0074      5828.3434      9623.7114      15452.055      132015.14      40.413946      40.413946      80.827891          16000 
    144000   2793.4166      896554.33      887.14115      896835.85      895699.41      897127.73     -2974.5344      1255.0539      702.55187      5776.8778      9676.476       15453.354      132014.07      40.413836      40.413836      80.827671          16000 
    145000   2822.4954      899942.68      893.81208      902514.58      897887.73      899425.74     -3805.2687     -2372.963       181.45667      5837.0138      9741.6426      15578.656      131950.79      40.407378      40.407378      80.814755          16000 
    146000   2777.5407      904860.9       900.48407      906070.4       905275.52      903236.79     -3626.8773      1319.7845     -3198.1387      5744.0459      9825.5591      15569.605      131855.44      40.397643      40.397643      80.795285          16000 
    147000   2827.048       905393.63      907.15939      905842.92      904348.53      905989.46      5351.0507      2819.7278     -4012.5042      5846.4288      9742.5882      15589.017      131799.64      40.391943      40.391943      80.783886          16000 
    148000   2813.9151      897619.94      913.83042      897901.37      898189.72      896768.72      202.48566     -1699.0741     -922.70818      5819.2694      9681.1497      15500.419      131994.52      40.411841      40.411841      80.823682          16000 
    149000   2801.8744      895783.88      920.50348      896014.26      897102.17      894235.22      3461.7337     -89.682929     -2355.7086      5794.3688      9599.4487      15393.817      132034.94      40.415965      40.415965      80.831931          16000 
    150000   2793.7668      897867.6       927.18332      897559.03      898603.5       897440.26     -1372.6397      2842.2983      1804.7529      5777.602       9695.664       15473.266      131981.49      40.410511      40.410511      80.821023          16000 
    151000   2786.6807      896538.88      933.85819      896776.38      894905.46      897934.82      2838.9134      1754.1278      4174.4013      5762.9477      9695.3276      15458.275      132032.95      40.415762      40.415762      80.831524          16000 
    152000   2822.5148      898006.51      940.51725      897416.84      899055.22      897547.46     -3804.798       1786.5222     -177.3015       5837.0538      9700.5935      15537.647      132006.48      40.413061      40.413061      80.826122          16000 
    153000   2800.8466      901463.31      947.16389      900710.66      902421.62      901257.65      1719.8994      2147.6885     -908.03451      5792.2434      9695.0843      15487.328      131921.05      40.404342      40.404342      80.808684          16000 
    154000   2794.1135      909527.21      953.80726      907760.14      911566.58      909254.92     -4240.6023     -4440.2618      6583.646       5778.3192      9872.5206      15650.84       131701.26      40.38189       40.38189       80.763781          16000 
    155000   2754.2649      904806.78      960.4556       903952.11      904762.35      905705.89      3140.3436      156.90408      149.82397      5695.9109      9815.0729      15510.984      131816.17      40.393632      40.393632      80.787263          16000 
    156000   2816.0374      899334.47      967.09855      898092.79      901272.98      898637.64      1398.6472      4834.6899     -1333.3623      5823.6585      9742.7511      15566.41       131953.86      40.407691      40.407691      80.815381          16000 
    157000   2793.5157      897692.12      973.7433       897880.59      899818.9       895376.88     -2246.6882     -499.87807      2125.6127      5777.0827      9684.3538      15461.437      131988.55      40.411231      40.411231      80.822463          16000 
    158000   2792.2487      900855.43      980.38677      901472.46      900567.11      900526.73     -3100.7881     -422.70285      1502.8196      5774.4627      9766.0578      15540.52       131948.97      40.407192      40.407192      80.814384          16000 
    159000   2800.9995      901172.58      987.06676      901990.32      901297.35      900230.05      3439.4507      2897.1104     -415.41935      5792.5595      9707.6582      15500.218      131914.68      40.403691      40.403691      80.807383          16000 
    160000   2819.1149      897347.46      993.73748      897454.01      897212.14      897376.22      4227.2984      3384.5314      8.7025844      5830.0228      9667.8417      15497.865      132049.78      40.41748       40.41748       80.83496           16000 
    161000   2774.3931      890468.05      1000.4121      890572.1       890714.1       890117.95     -3111.4886     -2077.4422     -1388.2005      5737.5366      9565.7731      15303.31       132194.54      40.432244      40.432244      80.864487          16000 
    162000   2803.1473      895138.42      1007.084       893511.71      896934.69      894968.85     -6596.3212     -788.59276     -2837.4576      5797.0013      9641.8842      15438.886      132064.88      40.41902       40.41902       80.83804           16000 
    163000   2793.1571      901305.03      1013.757       900451.72      901184.77      902278.61      2701.788      -1529.6647     -1154.7907      5776.3412      9753.5725      15529.914      131935.2       40.405786      40.405786      80.811573          16000 
    164000   2774.2535      904271.26      1020.4122      904698.14      904787.88      903327.76     -2676.4474      656.28549     -2193.8733      5737.2479      9772.3127      15509.561      131853.87      40.397482      40.397482      80.794964          16000 
    165000   2825.965       903712.06      1027.056       904348.27      903870.32      902917.59      649.91361      3283.2449     -1645.023       5844.189       9819.8571      15664.046      131862.68      40.398382      40.398382      80.796763          16000 
    166000   2786.9356      903905.26      1033.7035      904371.22      905544.86      901799.71     -2284.3167     -6603.0697     -329.77671      5763.4749      9791.0168      15554.492      131831.92      40.39524       40.39524       80.790481          16000 
    167000   2790.5117      902003.2       1040.3482      903687.02      901134.51      901188.06     -1809.9726      2569.7469      3670.5178      5770.8705      9763.868       15534.738      131911.8       40.403397      40.403397      80.806795          16000 
    168000   2757.6358      895654.91      1046.9911      897686.24      896196.18      893082.31     -836.27402     -480.18764      2564.0913      5702.882       9676.6931      15379.575      132043.81      40.416871      40.416871      80.833742          16000 
    169000   2802.9893      895035.44      1053.638       894699.01      894221.92      896185.38      32.128755     -3349.571       3956.4435      5796.6744      9642.2009      15438.875      132102.16      40.422823      40.422823      80.845646          16000 
    170000   2826.965       899626.18      1060.2815      899419.38      900459.11      899000.06     -3205.8088      3285.3554      3510.8687      5846.2571      9708.5944      15554.852      131990.69      40.41145       40.41145       80.822899          16000 
    171000   2796.6514      901949.21      1066.926       902470.65      902301.28      901075.69     -5292.8451     -2209.1916      2367.037       5783.5676      9736.2156      15519.783      131905.84      40.402788      40.402788      80.805577          16000 
    172000   2825.337       904706.56      1073.5697      905303.03      904773.99      904042.65      2703.8538      439.72106      4318.5291      5842.8904      9782.327       15625.217      131834.34      40.395488      40.395488      80.790975          16000 
    173000   2785.8926      905876.31      1080.2192      903738.62      906957.11      906933.21     -3597.5998     -71.10282       1921.2353      5761.3181      9788.269       15549.587      131774.32      40.389356      40.389356      80.778711          16000 
    174000   2792.0862      899317.58      1086.8646      897998.86      898973.56      900980.33      1703.0087      1320.3363     -2168.8984      5774.1266      9713.8352      15487.962      131958.41      40.408156      40.408156      80.816311          16000 
    175000   2796.5588      895154.5       1093.5091      896191.11      894677.48      894594.9      -2985.65       -135.38654      1825.578       5783.376       9634.4727      15417.849      132059.93      40.418516      40.418516      80.837031          16000 
    176000   2812.0107      898277.9       1100.1534      899065.33      898155.22      897613.15     -2741.5327      2556.9217      1580.0375      5815.3311      9698.1702      15513.501      131992.82      40.411667      40.411667      80.823334          16000 
    177000   2803.9739      901184.9       1106.7977      899410.08      902166.88      901977.74     -1871.2776     -2942.5949      3387.5708      5798.7107      9714.6327      15513.343      131876.02      40.399744      40.399744      80.799488          16000 
    178000   2799.0598      903671.37      1113.4412      902567.35      903670.88      904775.88     -701.62072      182.7466      -330.07799      5788.5482      9741.1458      15529.694      131833.19      40.39537       40.39537       80.79074           16000 
    179000   2789.8177      904430.1       1120.0851      905164.63      903682.46      904443.22     -1915.1958      2429.3968      599.49928      5769.4353      9828.9315      15598.367      131807.87      40.392783      40.392783      80.785567          16000 
    180000   2836.7951      902603.35      1126.7331      902065.43      903893.94      901850.69      845.59337     -29.600228     -1641.6869      5866.5861      9741.9766      15608.563      131888.33      40.401001      40.401001      80.802003          16000 
    181000   2784.4542      895951.76      1133.3753      895575         895466.43      896813.85     -1174.4457      4260.8855     -1909.303       5758.3434      9655.9526      15414.296      132050.75      40.417579      40.417579      80.835157          16000 
    182000   2804.6613      894703.76      1140.0199      895649.16      895180.73      893281.38     -3624.699      -3637.0974     -2512.5973      5800.1324      9726.086       15526.218      132070.24      40.419567      40.419567      80.839134          16000 
    183000   2806.4284      898136.59      1146.6639      899802.07      897578.79      897028.91     -3591.6537     -3831.1192     -1196.5287      5803.7867      9667.0723      15470.859      131988.26      40.411202      40.411202      80.822404          16000 
    184000   2854.9871      901002.07      1153.3076      901003.6       900284.75      901717.85      552.31873      1225.9904      2955.2433      5904.2078      9696.2454      15600.453      131951.51      40.407451      40.407451      80.814902          16000 
    185000   2821.3828      905011.43      1159.953       902087.07      906515.45      906431.76      646.29079      518.33293      380.3519       5834.7129      9785.6656      15620.379      131829.44      40.394987      40.394987      80.789974          16000 
    186000   2785.204       902560.62      1166.5952      904786.09      903092.31      899803.47      1125.2066     -4534.0848      1779.5408      5759.8939      9773.0007      15532.895      131887.43      40.400909      40.400909      80.801817          16000 
    187000   2794.3936      897239.26      1173.2342      897678.46      896786.89      897252.44     -1717.7994      1769.6258     -3932.1099      5778.8984      9672.5186      15451.417      132024.7       40.414921      40.414921      80.829842          16000 
    188000   2759.9052      894230.75      1179.879       896134.85      891970.14      894587.26     -2008.1338      2222.6357      453.88298      5707.5751      9682.6881      15390.263      132095.91      40.422186      40.422186      80.844371          16000 
    189000   2789.5159      895731.78      1186.5205      895099.93      895913.85      896181.56     -3378.4617     -2365.3596     -3303.7905      5768.8112      9650.3976      15419.209      132048.33      40.417331      40.417331      80.834663          16000 
    190000   2789.5322      902486.21      1193.163       901760.3       901734.22      903964.13      1015.8541     -5212.4454      3415.9858      5768.8448      9745.6523      15514.497      131873.15      40.399451      40.399451      80.798901          16000 
    191000   2848.3628      904326.46      1199.8014      905640.49      903457.63      903881.27      633.34792      164.1888       1193.6123      5890.5085      9747.4351      15637.944      131833.96      40.395449      40.395449      80.790898          16000 
    192000   2798.8441      902131.86      1206.4428      903019.85      901080.42      902295.31     -2939.5556      2003.017      -1852.1211      5788.1021      9742.8165      15530.919      131903.17      40.402516      40.402516      80.805033          16000 
    193000   2788.8274      896496.91      1213.0855      896392.29      895933.4       897165.04     -3707.741       2482.4211      1939.7302      5767.3872      9708.0543      15475.441      132026.07      40.415061      40.415061      80.830122          16000 
    194000   2757.7742      892913.21      1219.7277      891046.51      893154.4       894538.72      1871.7389      416.58869      1635.4711      5703.1682      9659.2761      15362.444      132102.34      40.422841      40.422841      80.845682          16000 
    195000   2799.5919      896535.5       1226.3707      895555.28      896864.38      897186.84      645.41394     -2228.608      -8622.3576      5789.6486      9714.7481      15504.397      132032.02      40.415667      40.415667      80.831335          16000 
    196000   2799.3445      902810.1       1233.012       901403.38      903840.49      903186.42      730.37382      1022.7011      3067.0602      5789.1371      9694.1497      15483.287      131857.83      40.397887      40.397887      80.795773          16000 
    197000   2814.9599      903449.71      1239.6547      904174.59      903051.88      903122.65     -2858.5433     -2903.3606      1225.0143      5821.4301      9770.6601      15592.09       131827.63      40.394801      40.394801      80.789603          16000 
    198000   2799.0873      903669.68      1246.2933      904404.02      904413.34      902191.68      2228.5549      1149.4893      2709.4383      5788.6051      9757.0609      15545.666      131830.05      40.395049      40.395049      80.790099          16000 
    199000   2799.4257      901350.66      1252.9337      901604.68      901183.28      901264.02      2010.7542     -48.635478      600.43798      5789.3048      9722.487       15511.792      131908.37      40.403047      40.403047      80.806094          16000 
    200000   2785.7676      897196.88      1259.5798      895743.84      899499.29      896347.51      1999.9839      1143.196       2443.1956      5761.0595      9682.5313      15443.591      131964.68      40.408796      40.408796      80.817592          16000 
    201000   2805.9452      895805.03      1266.2219      895346.52      894163.2       897905.38      1213.2436      1041.4967      3664.512       5802.7874      9650.8974      15453.685      132045.47      40.41704       40.41704       80.834079          16000 
    202000   2767.4698      897090.5       1272.8997      896711.91      897880.86      896678.72     -1966.7927     -1782.1259      1077.7837      5723.219       9716.6596      15439.879      131991.95      40.411578      40.411578      80.823157          16000 
    203000   2812.3516      901507.19      1279.5686      900682.36      902958.67      900880.55      2213.1958      717.74019     -2196.4397      5816.0362      9778.4675      15594.504      131906.61      40.402868      40.402868      80.805735          16000 
    204000   2796.5792      906638.28      1286.2367      907118.39      907420.41      905376.04     -1943.6475      1060.0155     -4270.1968      5783.4182      9764.7854      15548.204      131773.09      40.38923       40.38923       80.77846           16000 
    205000   2816.0043      902893.01      1292.9118      903530.23      902050.57      903098.22      2100.6391     -3977.08       -154.0651       5823.59        9766.4104      15590          131839.97      40.396063      40.396063      80.792125          16000 
    206000   2780.1646      901499.55      1299.5675      900492.47      900521.99      903484.18      1696.839       2969.8431     -579.29877      5749.4724      9685.5695      15435.042      131886.06      40.400769      40.400769      80.801538          16000 
    207000   2795.1602      897370.33      1306.2028      897885.46      897192.99      897032.55      2463.1207      4292.7652      187.79257      5780.4838      9696.2469      15476.731      132023.8       40.414829      40.414829      80.829658          16000 
    208000   2822.1737      897305.15      1312.8418      896255.22      897716.05      897944.18      2302.6056     -1697.5523     -4157.0731      5836.3486      9631.3358      15467.684      132024.79      40.41493       40.41493       80.82986           16000 
    209000   2800.6752      892946.13      1319.471       891171.58      893458.73      894208.08      2552.7168      449.53464     -1958.8277      5791.8889      9657.097       15448.986      132117.7       40.424408      40.424408      80.848816          16000 
    210000   2805.377       898249.05      1326.099       898650.78      898505.03      897591.33      1240.3443     -2955.4159     -145.57864      5801.6124      9636.0506      15437.663      132002.02      40.412607      40.412607      80.825214          16000 
    211000   2810.0848      901207.68      1332.7343      900872.35      901952.09      900798.61     -1422.7973      3916.3387     -1417.9863      5811.3482      9749.6582      15561.006      131919.64      40.404197      40.404197      80.808395          16000 
    212000   2785.8684      905017.96      1339.3782      905417.54      904252.03      905384.31     -2174.5275      1855.9976      1489.6411      5761.268       9703.1939      15464.462      131810.79      40.393081      40.393081      80.786163          16000 
    213000   2795.0137      904985.42      1346.0223      908124.15      904090.75      902741.37      1472.3487      1586.2574      3636.0436      5780.1806      9834.6731      15614.854      131852.24      40.397316      40.397316      80.794632          16000 
    214000   2765.6774      901502.28      1352.6691      901684.08      902985.19      899837.56     -883.756        2975.6426      2647.7628      5719.5123      9729.827       15449.339      131867.35      40.398859      40.398859      80.797717          16000 
    215000   2793.47        897210.58      1359.3461      896826.78      896519.25      898285.72      4067.8182     -6944.7402     -1398.6823      5776.9882      9735.0769      15512.065      132001.21      40.412524      40.412524      80.825048          16000 
    216000   2810.9211      895743.75      1366.0183      896492.69      896056.51      894682.04     -1600.3598     -1722.3714     -6618.655       5813.0777      9649.5459      15462.624      132031.94      40.41566       40.41566       80.831319          16000 
    217000   2835.1431      895292.14      1372.6672      895445.84      895719.66      894710.94      2085.6459      966.31057     -6549.9791      5863.1697      9690.3069      15553.477      132039.94      40.416476      40.416476      80.832952          16000 
    218000   2788.89        899645.28      1379.3259      899819.07      900586.28      898530.48      1725.4602     -1287.377       1168.9761      5767.5166      9691.8265      15459.343      131912.72      40.403491      40.403491      80.806982          16000 
    219000   2806.6472      905564.66      1385.9717      907803.8       904644.05      904246.14     -331.56338     -2387.1653     -2623.8403      5804.2392      9812.7909      15617.03       131757.7       40.387658      40.387658      80.775316          16000 
    220000   2802.7909      905505.59      1392.6164      906556.99      906636.14      903323.65      3854.4021      4014.4353      2580.334       5796.2641      9788.7694      15585.034      131809.37      40.392936      40.392936      80.785873          16000 
    221000   2794.8694      900436.84      1399.2602      899481.25      900896.07      900933.2      -2696.9077     -5338.3941      2670.4932      5779.8824      9703.2854      15483.168      131921.64      40.404402      40.404402      80.808804          16000 
    222000   2834.9847      898494.32      1405.9245      899293.5       898575.51      897613.94      1255.9707      3347.715       4223.9615      5862.8421      9711.4557      15574.298      131999.71      40.412371      40.412371      80.824741          16000 
    223000   2803.6522      896683.36      1412.6007      895877.57      897524.76      896647.74     -774.34872      1596.5749      599.48209      5798.0454      9604.2627      15402.308      132032.31      40.415697      40.415697      80.831395          16000 
    224000   2827.9487      894577.83      1419.2718      895342.91      895649.65      892740.92     -6795.4936      2302.3756      111.84771      5848.2914      9613.5952      15461.887      132097.24      40.422322      40.422322      80.844643          16000 
    225000   2781.9714      898625.21      1425.933       897834.06      899879.25      898162.31     -2411.0401     -1222.3114     -467.92781      5753.2088      9665.8218      15419.031      131961.07      40.408427      40.408427      80.816853          16000 
    226000   2789.1372      904933.98      1432.5624      906104.81      902986.75      905710.38      1860.4297      2221.3154     -1128.3162      5768.0279      9805.5071      15573.535      131828.96      40.394938      40.394938      80.789876          16000 
    227000   2786.8384      905693.31      1439.192       904548.96      905756.83      906774.13     -2865.0292      842.78669      1499.166       5763.274       9747.3273      15510.601      131793.4       40.391305      40.391305      80.78261           16000 
    228000   2819.9535      900835.13      1445.8239      899160.29      900154.95      903190.16     -331.5836      -123.18971     -2671.4668      5831.757       9730.126       15561.883      131929.39      40.405193      40.405193      80.810386          16000 
    229000   2799.2802      898053.32      1452.4513      897596.76      898676.54      897886.66     -945.49731     -513.69523      835.97935      5789.004       9717.2961      15506.3        132049.61      40.417462      40.417462      80.834924          16000 
    230000   2799.5369      896863.35      1459.0841      898044.12      896591.21      895954.72      528.93023      164.09236      433.67375      5789.5348      9710.0852      15499.62       132015.43      40.413975      40.413975      80.82795           16000 
    231000   2784.2069      897174.87      1465.7221      896641.65      897693.38      897189.58     -872.89457      2148.9392      2048.106       5757.832       9684.195       15442.027      132017.06      40.414141      40.414141      80.828282          16000 
    232000   2800.5399      896278.19      1472.3673      896584.16      896694.8       895555.62      525.37578     -672.68278     -1504.1458      5791.609       9677.9123      15469.521      132040.73      40.416557      40.416557      80.833113          16000 
    233000   2807.8204      903055.7       1479.0098      902472.83      902391.09      904303.16     -216.55853      994.46466     -2545.9691      5806.6654      9737.0409      15543.706      131879.06      40.400054      40.400054      80.800108          16000 
    234000   2801.5456      905640.1       1485.6522      907385.02      903643.96      905891.34      4921.7792      1855.7333     -2271.0808      5793.689       9759.2694      15552.958      131794.57      40.391425      40.391425      80.78285           16000 
    235000   2837.943       902142.44      1492.2914      903672.03      902162.65      900592.65     -684.73707     -1349.0913     -1724.4039      5868.9598      9737.5335      15606.493      131880.8       40.400232      40.400232      80.800463          16000 
    236000   2818.9163      899281.61      1498.9307      898477.81      900335.23      899031.8       1249.961      -75.290533     -865.90412      5829.6121      9702.9683      15532.58       131921.62      40.4044        40.4044        80.808801          16000 
    237000   2783.285       900405.26      1505.5704      902153.74      899609.76      899452.28     -628.83455      2487.8308     -1078.608       5755.9254      9699.3117      15455.237      131939.33      40.406208      40.406208      80.812415          16000 
    238000   2819.6513      898231.28      1512.2238      897457.8       898139.99      899096.05      1162.5133     -3280.8003     -2393.8403      5831.132       9730.3718      15561.504      132039.81      40.416463      40.416463      80.832926          16000 
    239000   2788.1404      895914.88      1518.8977      896337.98      895601.76      895804.91     -1190.2502      1751.0859      473.4779       5765.9665      9663.0329      15428.999      132043.41      40.41683       40.41683       80.833659          16000 
    240000   2819.7152      903576.38      1525.5669      904311.33      901741.61      904676.19     -2425.9187      4.4332982      5916.8878      5831.2644      9730.7272      15561.992      131867.88      40.398912      40.398912      80.797825          16000 
    241000   2796.9048      903531.02      1532.2357      904608.95      901621.66      904362.45     -715.70126     -2161.2838      795.43323      5784.0917      9731.4718      15515.563      131835.97      40.395654      40.395654      80.791308          16000 
    242000   2805.7274      900574.8       1538.9015      899111.72      898010.4       904602.27     -2196.5029     -5167.6679      849.28823      5802.3371      9727.0521      15529.389      131917.58      40.403987      40.403987      80.807974          16000 
    243000   2801.4464      899546.74      1545.566       899881.84      898766.52      899991.86     -1008.0673      1495.4963      322.45391      5793.4837      9664.9177      15458.401      131954.75      40.407782      40.407782      80.815564          16000 
    244000   2793.7471      899506.59      1552.2376      899596.27      898541.96      900381.54      634.49612     -6093.5025     -510.05195      5777.5614      9699.7823      15477.344      131979.55      40.410313      40.410313      80.820626          16000 
    245000   2789.285       898284.93      1558.9024      897100.87      900595.13      897158.8       50.743211     -524.95025      67.585136      5768.3335      9629.7462      15398.08       131965.06      40.408834      40.408834      80.817668          16000 
    246000   2809.4056      893184.01      1565.5713      894748.17      891290.95      893512.89      5287.9078     -1011.9395      1598.6563      5809.9438      9621.0304      15430.974      132122.71      40.424919      40.424919      80.849838          16000 
    247000   2815.4241      893440.95      1572.2425      893963.65      892848.4       893510.79      4844.9743     -901.73095     -167.98807      5822.3901      9559.693       15382.083      132141.32      40.426817      40.426817      80.853634          16000 
    248000   2806.0004      901674.79      1578.9345      901467.5       902846.53      900710.33      1569.4229      6033.3532     -755.22598      5802.9016      9715.3204      15518.222      131898.14      40.402003      40.402003      80.804005          16000 
    249000   2823.5715      901796.51      1585.5783      900351.28      903127.78      901910.49      5916.2466      2828.6404     -4114.008       5839.2392      9732.567       15571.806      131924.71      40.404715      40.404715      80.80943           16000 
    250000   2786.0226      899633.63      1592.244       900080.1       897176.55      901644.22      3341.2726      276.19052      689.1865       5761.5869      9657.8128      15419.4        131964.37      40.408764      40.408764      80.817528          16000 
    251000   2797.1976      899630.12      1598.8959      898918.43      900628.56      899343.37     -4954.1305     -2092.829      -1367.8255      5784.6971      9678.3921      15463.089      131993.19      40.411705      40.411705      80.82341           16000 
    252000   2829.7898      902298.65      1605.5309      903380.57      902705.27      900810.11      591.21972     -731.44136      1154.3817      5852.0988      9713.1493      15565.248      131914.54      40.403677      40.403677      80.807354          16000 
    253000   2775.3986      901688.92      1612.1591      901623.6       900955.52      902487.65      964.26102      1541.868      -420.79475      5739.6161      9740.6869      15480.303      131898.23      40.402012      40.402012      80.804024          16000 
    254000   2820.5993      895912.83      1618.7952      895369.49      896826.11      895542.89     -7536.1052     -809.18098     -2403.2849      5833.0925      9663.5393      15496.632      132061.15      40.41864       40.41864       80.83728           16000 
    255000   2791.0817      895213.8       1625.4292      894695.66      894666.61      896279.12     -1173.7074     -3417.3708      2505.8919      5772.0492      9597.2636      15369.313      132100.05      40.422608      40.422608      80.845215          16000 
    256000   2800.8255      897823.69      1632.0589      898141.16      898790.12      896539.78      1889.5413     -522.5727       694.09688      5792.1998      9743.7914      15535.991      132043.07      40.416795      40.416795      80.83359           16000 
    257000   2772.3034      898817.86      1638.6826      897645.76      899058.46      899749.34      934.5807       1757.0628     -1681.8712      5733.215       9738.4636      15471.679      131959.47      40.408263      40.408263      80.816527          16000 
    258000   2798.1502      903307.22      1645.3026      905830.07      902538.54      901553.05      437.27335     -612.1978       237.10086      5786.6672      9777.8695      15564.537      131888.87      40.401056      40.401056      80.802112          16000 
    259000   2779.0576      903517.16      1651.918       904036.09      903873.17      902642.23     -548.71777     -2089.3041     -1850.3388      5747.1829      9758.7369      15505.92       131846.15      40.396693      40.396693      80.793386          16000 
    260000   2834.3165      905845.36      1658.5314      905268.85      906270.48      905996.74      77.447701     -2791.1445      2086.9561      5861.4601      9772.5366      15633.997      131822.07      40.394234      40.394234      80.788469          16000 
    261000   2813.2816      905008.48      1665.1407      903699.93      905072.85      906252.66     -1295.1963      1714.0856     -2457.4087      5817.9594      9726.8202      15544.78       131826.43      40.394679      40.394679      80.789358          16000 
    262000   2811.0764      897731.9       1671.7504      898720.32      896523.19      897952.19      1528.4362     -3828.515       343.45743      5813.3988      9571.672       15385.071      132014.51      40.413881      40.413881      80.827763          16000 
    263000   2779.9753      893496.71      1678.3635      896042.04      890989.16      893458.94     -2481.1715      1172.6636      1656.1473      5749.0808      9659.7182      15408.799      132075.26      40.420079      40.420079      80.840158          16000 
    264000   2818.2907      897057.93      1684.9759      895796.46      896723.96      898653.38      2513.4528     -2193.3893     -2909.8304      5828.3183      9709.8732      15538.192      132042.19      40.416705      40.416705      80.83341           16000 
    265000   2775.6191      901768.46      1691.5965      901190.11      902420.39      901694.88      257.1535       1470.8158      381.55178      5740.072       9703.7942      15443.866      131945.97      40.406885      40.406885      80.81377           16000 
    266000   2791.9336      900191.57      1698.2218      901293.38      900964.44      898316.9      -2530.5897     -3073.1176      1644.0624      5773.811       9732.6697      15506.481      131958.28      40.408142      40.408142      80.816284          16000 
    267000   2806.0696      904934.41      1704.8552      906573.94      904820.98      903408.3      -4862.6245     -3240.6665      4421.9263      5803.0448      9793.1269      15596.172      131789.11      40.390867      40.390867      80.781734          16000 
    268000   2807.7108      909825.22      1711.4841      908819.87      909589.53      911066.27     -1711.8879     -1583.1153     -898.50237      5806.4387      9790.9823      15597.421      131688.91      40.380628      40.380628      80.761257          16000 
    269000   2782.7936      902172.92      1718.1113      902897.84      900772.89      902848.03      6169.0482      1705.9053      4073.5202      5754.9091      9767.4465      15522.356      131891.61      40.401335      40.401335      80.802671          16000 
    270000   2805.1932      897832.03      1724.7381      897367.18      897920.63      898208.28     -1980.6091      1409.069      -2232.0822      5801.2324      9709.3377      15510.57       132025.79      40.415031      40.415031      80.830063          16000 
    271000   2790.3296      898549.41      1731.3616      898866.1       898367.15      898414.99     -4532.5686      990.80924      1429.6566      5770.4939      9671.1233      15441.617      132012.52      40.413678      40.413678      80.827356          16000 
    272000   2797.1141      900425.34      1737.9828      899727.57      898240.4       903308.06     -399.72977     -1451.1513      735.04134      5784.5244      9701.4587      15485.983      131967.97      40.409132      40.409132      80.818263          16000 
    273000   2839.519       905792.38      1744.6125      905104.62      906121.33      906151.2      -2332.62       -607.59122     -1552.2377      5872.2192      9789.1384      15661.358      131856.69      40.39777       40.39777       80.795539          16000 
    274000   2798.2475      908655.08      1751.2423      909436.31      908864.49      907664.44      7562.8678      933.94744     -3271.8831      5786.8682      9820.1829      15607.051      131733.4       40.385175      40.385175      80.770351          16000 
    275000   2772.547       902112.09      1757.8711      904209.84      900961         901165.43      1534.9662     -6476.799       337.67891      5733.7189      9708.5257      15442.245      131876.84      40.399828      40.399828      80.799655          16000 
    276000   2817.7356      897992.67      1764.5013      897869.51      897365.81      898742.69      850.41047     -1133.6736      2348.3712      5827.1704      9621.0446      15448.215      132012.64      40.41369       40.41369       80.82738           16000 
    277000   2852.773       896130.84      1771.1311      895166.33      896791.31      896434.89     -2321.5035      2769.2272     -4379.6727      5899.6288      9665.9151      15565.544      132052.82      40.41779       40.41779       80.835579          16000 
    278000   2784.1953      898357.17      1777.7599      898032.58      898506.36      898532.55     -2802.9422      1141.8241     -2968.118       5757.8079      9709.5326      15467.341      131939.21      40.406196      40.406196      80.812391          16000 
    279000   2814.2916      899905.09      1784.3865      898635.89      899253.8       901825.57     -3242.0202     -1276.8634     -2089.4519      5820.0481      9751.3183      15571.366      131944.52      40.406738      40.406738      80.813475          16000 
    280000   2799.5264      903227.28      1791.0154      903935.17      905608.93      900137.75     -1510.2285     -335.89679     -3029.0653      5789.5132      9802.6614      15592.175      131855.24      40.397622      40.397622      80.795244          16000 
    281000   2823.1974      907284.3       1797.6435      906134.91      907954.67      907763.32     -673.33407      2098.5482     -3217.9179      5838.4655      9747.0251      15585.491      131751.14      40.386987      40.386987      80.773975          16000 
    282000   2828.1642      905839.82      1804.2708      903716.22      905293.64      908509.61     -1778.1613      753.17752      994.57977      5848.7371      9771.4015      15620.139      131800.71      40.392052      40.392052      80.784105          16000 
    283000   2799.2333      898483.28      1810.8991      898408.88      898652.13      898388.82     -2379.9349     -2214.3154     -1305.0981      5788.9071      9720.0323      15508.939      131977.7       40.410124      40.410124      80.820248          16000 
    284000   2791.0752      896954.91      1817.5259      895419.71      898000.79      897444.25      4364.8583     -1159.4668     -2084.3556      5772.0357      9666.2463      15438.282      132003.31      40.412738      40.412738      80.825477          16000 
    285000   2777.5121      897992.83      1824.1519      896761.04      897591.69      899625.76      8501.9397      736.1015       1712.5541      5743.9868      9734.8199      15478.807      132002.56      40.412661      40.412661      80.825322          16000 
[...]
   3930000   3488.5332      906733.44      6713.2409      967422.1       909736.09      843042.12      73442.317      787.48414      6307.0452      7214.4019      19394.467      26608.868      115082.6       38.783251      38.783251      76.510536          16000 
   3931000   3505.4288      904402.7       6720.4273      964108.22      907828.8       841271.09      74049.511     -3874.2494     -2176.8851      7249.3427      19308.828      26558.171      115171.67      38.793254      38.793254      76.53027           16000 
   3932000   3484.5509      902178.36      6727.616       961817.15      903205.55      841512.37      75548.743     -1829.1024      5846.2081      7206.1665      19316.783      26522.95       115233.6       38.800206      38.800206      76.543985          16000 
   3933000   3476.5906      896765.48      6734.8048      956640.19      899202.42      834453.82      74073.47      -3447.4531      2694.1829      7189.7043      19268.299      26458.003      115349.2       38.813176      38.813176      76.569572          16000 
   3934000   3514.5643      900577.38      6741.994       960280.34      903838.98      837612.8       76586.409     -2622.5498      293.24586      7268.2353      19272.24       26540.475      115200.67      38.79651       38.79651       76.536693          16000 
   3935000   3482.2664      903615.46      6749.1836      962314.58      906565.66      841966.14      75141.294     -4594.9921      2070.1641      7201.442       19385.151      26586.593      115118.84      38.787321      38.787321      76.518567          16000 
   3936000   3504.9479      889324.05      6756.3705      945527.73      892422.04      830022.36      75139.526     -3290.2993      2219.434       7248.3481      19132.796      26381.144      115484.96      38.828398      38.828398      76.599601          16000 
   3937000   3504.257       903099.27      6763.5621      964439.04      904550.71      840308.05      74475.637     -1897.7332      2488.951       7246.9192      19314.334      26561.253      115162.95      38.792275      38.792275      76.528338          16000 
   3938000   3502.1277      903962.02      6770.7515      958881.11      907183.6       845821.34      73531.432     -747.76681      1072.0734      7242.5159      19303.442      26545.958      115190.25      38.79534       38.79534       76.534385          16000 
   3939000   3508.6126      897135.76      6777.9397      956685.28      899416.82      835305.18      77781.97      -1176.3474      4238.9543      7255.9269      19230.685      26486.612      115295.91      38.807199      38.807199      76.55778           16000 
   3940000   3498.9261      894094.9       6785.1305      953431.72      896946.89      831906.09      73896.059     -4794.09        2408.0701      7235.8948      19213.16       26449.055      115362.59      38.814678      38.814678      76.572535          16000 
   3941000   3504.065       907653.47      6792.3202      967588.73      909910.19      845461.5       72538.726     -1913.8056     -1342.4684      7246.5224      19379.089      26625.612      115047.75      38.779336      38.779336      76.502812          16000 
   3942000   3499.8634      901478         6799.5096      959925.18      905276.48      839232.33      73248.603     -4087.3478      2159.708       7237.8333      19291.117      26528.95       115218.96      38.798562      38.798562      76.540742          16000 
   3943000   3495.3402      897978.84      6806.7016      959221.41      899827.42      834887.68      73186.206      1753.4269      2967.1662      7228.4792      19285.494      26513.973      115245.03      38.801489      38.801489      76.546516          16000 
   3944000   3475.1711      898505.81      6813.89        956695         902969.56      835852.87      75513.027      92.426065      2124.3053      7186.7688      19293.696      26480.465      115302.83      38.807975      38.807975      76.55931           16000 
   3945000   3493.7166      901152.23      6821.0792      962782.91      903987.05      836686.72      74977.571      1384.8126      2430.8909      7225.1215      19319.435      26544.556      115187.95      38.795081      38.795081      76.533875          16000 
   3946000   3475.3413      895283.21      6828.2683      955282.14      895763.51      834803.98      74782.205     -3168.4861      1656.644       7187.1206      19250.906      26438.027      115377.85      38.816389      38.816389      76.57591           16000 
   3947000   3511.1378      900271.8       6835.4559      959794.15      901785         839236.25      73469.693      1220.5861      435.33661      7261.149       19225.495      26486.644      115290.6       38.806602      38.806602      76.556603          16000 
   3948000   3512.6608      907072.4       6842.6433      968252.83      908803.13      844161.23      75966.796      314.28144     -110.34394      7264.2987      19340.58       26604.879      115080.04      38.782964      38.782964      76.50997           16000 
   3949000   3479.3043      895091.82      6849.8296      952953.17      896430.8       835891.47      74422.113     -6578.4298      3472.5687      7195.3163      19243.223      26438.54       115374.89      38.816058      38.816058      76.575257          16000 
   3950000   3529.7622      897476.97      6857.0147      957654.07      898854.03      835922.8       74026.604      1313.5625      3566.9663      7299.665       19230.389      26530.054      115211.67      38.797745      38.797745      76.539129          16000 
   3951000   3513.8488      902076.04      6864.2028      963992.81      902040.27      840195.05      72663.331      1734.139      -179.71542      7266.7555      19277.739      26544.494      115184.59      38.794705      38.794705      76.533132          16000 
   3952000   3510.1521      900457.13      6871.3926      956583.48      902562.43      842225.49      72457.371     -3498.1376      2122.3549      7259.1105      19250.036      26509.147      115247.03      38.801713      38.801713      76.546958          16000 
   3953000   3469.5407      894774.45      6878.5802      953695.82      897387.22      833240.32      74531.261     -1154.7942     -15.218186      7175.1248      19257.509      26432.633      115383.81      38.817057      38.817057      76.577228          16000 
   3954000   3524.2061      912209.33      6885.7717      975540.87      909756.98      851330.15      74615.367      1824.3112      4370.7732      7288.1747      19378.259      26666.434      114968.74      38.770456      38.770456      76.485294          16000 
   3955000   3501.5393      894402.88      6892.9593      955111.39      895020.06      833077.21      74528.861     -1605.9973      3388.6827      7241.2989      19204.979      26446.277      115358.03      38.814167      38.814167      76.571527          16000 
   3956000   3486.5415      896997.4       6900.1493      955420.87      902012.88      833558.44      73242.477     -3998.2497      1617.569       7210.283       19258.723      26469.006      115316.24      38.809479      38.809479      76.562278          16000 
   3957000   3495.4994      905468.19      6907.3367      965533.22      907378.22      843493.12      78444.142     -6501.5857     -3025.8851      7228.8082      19336.964      26565.772      115143.74      38.790118      38.790118      76.524084          16000 
   3958000   3473.0356      902276.44      6914.523       962269.53      902807.3       841752.51      73778.268     -2601.4664     -4077.6929      7182.3525      19323.923      26506.275      115248.32      38.801858      38.801858      76.547243          16000 
   3959000   3502.703       898048.21      6921.7089      958236.33      898126.87      837781.44      74167.12      -3654.3887     -3078.2181      7243.7056      19262.509      26506.214      115247.83      38.801803      38.801803      76.547135          16000 
   3960000   3487.1944      894877.96      6928.8953      951497.51      896321.52      836814.85      72804.346     -2838.4082     -3262.4485      7211.6333      19206.322      26417.955      115405.19      38.819455      38.819455      76.581958          16000 
   3961000   3551.0872      909848.72      6936.0813      968136.05      913361.71      848048.41      74000.847     -5566.5383     -289.57538      7343.7657      19308.085      26651.851      114987.47      38.772562      38.772562      76.489449          16000 
   3962000   3507.0032      901174.59      6943.2681      960525.54      904347.69      838650.54      73301.577      303.75434      326.20118      7252.5986      19268.904      26521.502      115217.28      38.798375      38.798375      76.540372          16000 
   3963000   3516.2446      896987.07      6950.4567      955792.72      899410.15      835758.34      75868.492      153.30057     -1859.6642      7271.7101      19192.071      26463.781      115319.83      38.809882      38.809882      76.563073          16000 
   3964000   3500.4848      900277.03      6957.6435      959573.01      902628.53      838629.54      75458.754     -4605.1728     -2219.6328      7239.1183      19280.311      26519.429      115220.77      38.798766      38.798766      76.541144          16000 
   3965000   3493.2569      898696.69      6964.8319      961778.5       899150.48      835161.07      76189.906     -1971.9937      1876.9184      7224.1707      19293.353      26517.523      115222.62      38.798973      38.798973      76.541553          16000 
   3966000   3500.9581      898437.15      6972.0196      954345.02      901979.55      838986.88      72670.367     -8557.7213     -6207.4143      7240.0971      19226.673      26466.77       115312.21      38.809027      38.809027      76.561387          16000 
   3967000   3473.5377      902275.1       6979.2059      965885.99      901711.42      839227.88      74525.261     -5478.7569      1722.4547      7183.3908      19333.418      26516.809      115222.92      38.799007      38.799007      76.541619          16000 
   3968000   3494.6052      898396.83      6986.3916      956366.41      897385.52      841438.56      72275.185     -4613.0501     -3008.2386      7226.959       19249.344      26476.302      115294.12      38.806998      38.806998      76.557383          16000 
   3969000   3494.597       900449.06      6993.5763      960892.79      899104.68      841349.71      75383.345      962.84439     -3242.3269      7226.9422      19259.785      26486.727      115274.53      38.804799      38.804799      76.553045          16000 
   3970000   3522.9371      906141.85      7000.7619      966495.6       906529.27      845400.69      75547.882     -212.27861     -5369.0277      7285.5503      19312.142      26597.692      115078.1       38.782746      38.782746      76.50954           16000 
   3971000   3511.8748      896865.54      7007.947       956879.12      895178.08      838539.43      75795.792     -4542.5562     -650.83978      7262.6732      19202.755      26465.428      115312.55      38.809065      38.809065      76.561462          16000 
   3972000   3486.3195      897990.23      7015.1317      959868.53      897887.53      836214.63      73145.096      240.30247      3580.0683      7209.8239      19259.617      26469.441      115303.81      38.808085      38.808085      76.559527          16000 
   3973000   3488.6565      901597.57      7022.3177      959670.59      905985.06      839137.06      76759.164     -5743.139      -3240.7525      7214.657       19342.858      26557.515      115146.72      38.790452      38.790452      76.524743          16000 
   3974000   3477.5538      896774.26      7029.5019      956458.78      898323.9       835540.09      70779.231     -4544.6669     -2144.5383      7191.6963      19216.529      26408.226      115411.73      38.820188      38.820188      76.583404          16000 
   3975000   3511.2115      901732.22      7036.6865      960321.75      905386.3       839488.61      76079.627     -5737.4481     -895.39597      7261.3014      19277.174      26538.476      115178.52      38.794023      38.794023      76.531787          16000 
   3976000   3538.8942      899983.42      7043.871       961094.84      901071.36      837784.05      73535.251     -4498.1178     -3121.0305      7318.5502      19174.894      26493.445      115257.27      38.802862      38.802862      76.549225          16000 
   3977000   3481.8899      900354.91      7051.0553      961128.38      898629.74      841306.62      73874.216     -7260.7347     -3382.126       7200.6634      19325.736      26526.4        115197.79      38.796187      38.796187      76.536055          16000 
   3978000   3499.9088      902529.28      7058.2398      959799.81      903850.42      843937.63      72595.512      255.57202      5332.1473      7237.9272      19272.937      26510.864      115224.89      38.799229      38.799229      76.542057          16000 
   3979000   3490.5477      902421.51      7065.4242      964240.24      902462.43      840561.86      73253.15      -2054.4008     -9251.5449      7218.5681      19311.869      26530.437      115188.01      38.795088      38.795088      76.533888          16000 
   3980000   3504.1046      896340.14      7072.6104      955340.92      899809.95      833869.55      72897.276     -7662.3241     -1902.4676      7246.6042      19227.743      26474.347      115287.7       38.806277      38.806277      76.555962          16000 
   3981000   3508.6593      905094.94      7079.7971      964135.33      906316.57      844832.92      72367.639      699.93304     -5163.1597      7256.0233      19306.438      26562.461      115130.78      38.788662      38.788662      76.521211          16000 
   3982000   3539.1792      896880.42      7086.9825      957325.15      898107.84      835208.26      73105.345     -5443.1798     -2106.4209      7319.1396      19169.548      26488.688      115261.2       38.803304      38.803304      76.550096          16000 
   3983000   3516.1902      895420.61      7094.1706      953951.53      897192.64      835117.67      73476.263     -1891.9588      5192.46        7271.5976      19190.711      26462.309      115307.39      38.808486      38.808486      76.56032           16000 
   3984000   3512.7546      897598.75      7101.3589      956323.59      899348.86      837123.8       74558.33      -4220.8816     -1110.1565      7264.4926      19221.373      26485.866      115265.06      38.803737      38.803737      76.550951          16000 
   3985000   3493.2981      904154.4       7108.5415      961246.23      903386.7       847830.28      71471.289     -2652.5439      1693.6349      7224.2559      19314.237      26538.493      115170.66      38.793141      38.793141      76.530047          16000 
   3986000   3533.4568      898611.92      7115.7211      955110.02      899834.36      840891.4       72976.17      -1913.2948     -2556.124       7307.3056      19173.649      26480.955      115271.24      38.804431      38.804431      76.552319          16000 
   3987000   3484.8575      892988.36      7122.8991      950343.24      897111.68      831510.15      75730.461      466.06471     -2669.4833      7206.8006      19209.224      26416.024      115386.96      38.817411      38.817411      76.577925          16000 
   3988000   3503.0853      902102.17      7130.0783      964567.49      904206.04      837533         72609.223     -5235.0688      675.65791      7244.4961      19269.27       26513.766      115211.04      38.797674      38.797674      76.538989          16000 
   3989000   3518.0387      899768.02      7137.2615      961850.94      899893.5       837559.63      73668.008     -1265.5318     -1210.378       7275.4203      19214.148      26489.568      115253.58      38.802448      38.802448      76.548408          16000 
   3990000   3512.2361      898412.19      7144.444       960377.32      898530.4       836328.84      75041.89      -5278.5829     -82.942037      7263.4203      19237.132      26500.552      115233.45      38.800189      38.800189      76.543952          16000 
   3991000   3487.7811      898732.62      7151.629       958287.26      900808.32      837102.27      70542.993     -3122.759       2452.9025      7212.8467      19280.432      26493.278      115246.29      38.80163       38.80163       76.546795          16000 
   3992000   3472.9282      905344.95      7158.8128      962722.9       908209.2       845102.74      72013.918     -5185.4598     -252.07171      7182.1303      19374.948      26557.079      115132         38.788799      38.788799      76.521482          16000 
   3993000   3483.3738      893292.13      7165.9969      950374.95      897979.15      831522.3       71708.283     -4814.4884     -1512.3296      7203.7322      19225.361      26429.093      115359.82      38.814367      38.814367      76.571921          16000 
   3994000   3513.1604      900821.17      7173.1829      960154.14      902131.06      840178.31      72361.465     -2043.1187     -767.78184      7265.3318      19264.975      26530.307      115178.53      38.794024      38.794024      76.531789          16000 
   3995000   3473.3199      900185.07      7180.3679      958001.41      903839.49      838714.3       75408.265     -3432.8141     -2865.045       7182.9404      19319.645      26502.586      115227.7       38.799544      38.799544      76.542678          16000 
   3996000   3505.0453      900442.03      7187.5514      962530.79      898641.86      840153.45      74056.878     -486.46998     -595.12502      7248.5496      19265.306      26513.855      115206.04      38.797112      38.797112      76.537882          16000 
   3997000   3520.1822      901739.35      7194.7358      961632.87      901576.15      842009.04      70287.298     -1291.9064      1362.571       7279.8532      19261.897      26541.75       115156.27      38.791525      38.791525      76.526859          16000 
   3998000   3487.9297      890131.63      7201.9192      950342.91      891222.25      828829.73      74907.682     -3440.8135     -816.11596      7213.1539      19169.086      26382.24       115440.31      38.823392      38.823392      76.589726          16000 
   3999000   3495.6638      900783.37      7209.1034      962676.89      901353.55      838319.68      74753.558     -8037.3614     -2214.1739      7229.1483      19296.249      26525.397      115182.71      38.794494      38.794494      76.532716          16000 
   4000000   3522.6884      894639.03      7216.2942      957364.1       896176.93      830376.05      77153.524     -6471.8373     -5254.9739      7285.036       19162.285      26447.322      115321.42      38.81006       38.81006       76.563424          16000 
Loop time of 7216.29 on 8 procs for 1000000 steps with 16000 atoms

Performance: 5.986 ns/day, 4.009 hours/ns, 138.575 timesteps/s
58.7% CPU use with 1 MPI tasks x 8 OpenMP threads

MPI task timing breakdown:
Section |  min time  |  avg time  |  max time  |%varavg| %total
---------------------------------------------------------------
Pair    | 6926.6     | 6926.6     | 6926.6     |   0.0 | 95.99
Neigh   | 11.29      | 11.29      | 11.29      |   0.0 |  0.16
Comm    | 38.365     | 38.365     | 38.365     |   0.0 |  0.53
Output  | 1.4702     | 1.4702     | 1.4702     |   0.0 |  0.02
Modify  | 211.26     | 211.26     | 211.26     |   0.0 |  2.93
Other   |            | 27.33      |            |       |  0.38

Nlocal:          16000 ave       16000 max       16000 min
Histogram: 1 0 0 0 0 0 0 0 0 0
Nghost:          15730 ave       15730 max       15730 min
Histogram: 1 0 0 0 0 0 0 0 0 0
Neighs:              0 ave           0 max           0 min
Histogram: 1 0 0 0 0 0 0 0 0 0
FullNghs:  2.00075e+06 ave 2.00075e+06 max 2.00075e+06 min
Histogram: 1 0 0 0 0 0 0 0 0 0

Total # of neighbors = 2000752
Ave neighs/atom = 125.047
Neighbor list builds = 27020
Dangerous builds = 0
Total wall time: 7:55:00
