
atom_style atomic
units metal
boundary p p p
#atom_modify sort 0 0.0
newton on

read_data data.lammps
Reading data file ...
  triclinic box = (0 0 0) to (4.3790145 4.3790145 4.3790145) with tilt (-0 0 0)
  1 by 1 by 1 MPI processor grid
  reading atoms ...
  8 atoms
  read_data CPU = 0.001 seconds
replicate 10 10 20
Replicating atoms ...
  triclinic box = (0 0 0) to (43.790145 43.790145 87.58029) with tilt (-0 0 0)
  1 by 1 by 1 MPI processor grid
  16000 atoms
  replicate CPU = 0.007 seconds

### interactions

pair_style flare
pair_coeff * * lmp.flare
Reading potential file lmp.flare with DATE: Thu

# compute unc all flare/std/atom L_inv_lmp.flare sparse_desc_lmp.flare
# compute MaxUnc all reduce max c_unc

mass 1 12.011000
mass 2 28.085000

thermo_style custom step temp press cpu pxx pyy pzz pxy pxz pyz ke pe etotal vol lx ly lz atoms    #c_MaxUnc
thermo 1000
timestep 0.0005
restart 100000 restart_*.dat

#################### Equilibrate at P and T_es ##############################
velocity all create $T 41928459 rot yes dist gaussian
velocity all create 3800 41928459 rot yes dist gaussian
fix mom all momentum 1000 linear 1 1 1 angular

fix 1 all npt temp $T $T $(100.0*dt) iso $P $P $(1000.0*dt)
fix 1 all npt temp 3800 $T $(100.0*dt) iso $P $P $(1000.0*dt)
fix 1 all npt temp 3800 3800 $(100.0*dt) iso $P $P $(1000.0*dt)
fix 1 all npt temp 3800 3800 0.050000000000000002776 iso $P $P $(1000.0*dt)
fix 1 all npt temp 3800 3800 0.050000000000000002776 iso 900000 $P $(1000.0*dt)
fix 1 all npt temp 3800 3800 0.050000000000000002776 iso 900000 900000 $(1000.0*dt)
fix 1 all npt temp 3800 3800 0.050000000000000002776 iso 900000 900000 0.5
dump 1 all custom 1000 1equil.bin id type x y z vx vy vz
run   10000 # report performance
Neighbor list info ...
  update every 1 steps, delay 10 steps, check yes
  max neighbors/atom: 2000, page size: 100000
  master list distance cutoff = 6
  ghost atom cutoff = 6
  binsize = 6, bins = 8 8 15
  1 neighbor lists, perpetual/occasional/extra = 1 0 0
  (1) pair flare/kk, perpetual
      attributes: full, newton on, kokkos_device
      pair build: full/bin/kk/device
      stencil: full/bin/3d
      bin: kk/device
Per MPI rank memory allocation (min/avg/max) = 15.9 | 15.9 | 15.9 Mbytes
   Step          Temp          Press           CPU            Pxx            Pyy            Pzz            Pxy            Pxz            Pyz           KinEng         PotEng         TotEng         Volume           Lx             Ly             Lz          Atoms   
         0   3800           68690.109      0              68311.667      68862.63       68896.03      -527.30309      237.49657     -596.18676      7858.5256     -4109.4047      3749.1209      167941.93      43.790145      43.790145      87.58029           16000 
      1000   3949.2429      902660.64      6.5749607      903606.66      900104         904271.26     -2807.7871     -2047.8953     -6317.2958      8167.1649      11737.956      19905.121      133145.36      40.52895       40.52895       81.057899          16000 
      2000   3768.8236      899350.76      13.168546      895670.25      901650.01      900732.03      1927.9291     -2245.0052     -6606.6457      7794.0519      11568.948      19362.999      132899.92      40.504031      40.504031      81.008061          16000 
      3000   3837.9256      902248.48      19.759969      901804.85      900582.52      904358.06      2856.0655      5733.7658     -1910.9926      7936.957       11795.871      19732.828      132877.98      40.501802      40.501802      81.003603          16000 
      4000   3817.0333      897986.64      26.349026      898761.66      895596.34      899601.91     -1471.1917     -656.71389     -2099.5102      7893.7511      11666.642      19560.393      132846.65      40.498618      40.498618      80.997236          16000 
      5000   3834.7516      901548.73      32.933969      900050.52      902268.78      902326.89      1038.792       4975.5716      1561.1085      7930.3931      11767.52       19697.913      132815.91      40.495494      40.495494      80.990989          16000 
      6000   3764.0221      898102.56      39.5223        896673.93      899292.43      898341.32     -451.84815     -4627.643       272.2217       7784.1221      11873.819      19657.942      132857.13      40.499683      40.499683      80.999366          16000 
      7000   3801.7306      902276.87      46.111935      904383.26      902212.76      900234.59      1055.1214      1190.7521     -4429.2518      7862.1045      11772.526      19634.63       132783.36      40.492186      40.492186      80.984372          16000 
      8000   3846.6516      899041.88      52.701785      897886.04      898786.95      900452.66     -4184.1831     -1785.034      -2618.5117      7955.0027      11775.11       19730.112      132829.41      40.496866      40.496866      80.993732          16000 
      9000   3759.5202      899070.41      59.291931      898272.13      900808.67      898130.45     -817.86712      1157.8422      1448.311       7774.8121      11804.191      19579.003      132817.41      40.495646      40.495646      80.991292          16000 
     10000   3791.5112      896559.95      65.88106       895132.33      896726.64      897820.89      595.45004     -2251.3881     -289.70112      7840.9706      11888.91       19729.88       132916.67      40.505733      40.505733      81.011465          16000 
Loop time of 65.8811 on 8 procs for 10000 steps with 16000 atoms

Performance: 6.557 ns/day, 3.660 hours/ns, 151.789 timesteps/s
61.2% CPU use with 1 MPI tasks x 8 OpenMP threads

MPI task timing breakdown:
Section |  min time  |  avg time  |  max time  |%varavg| %total
---------------------------------------------------------------
Pair    | 62.859     | 62.859     | 62.859     |   0.0 | 95.41
Neigh   | 0.10725    | 0.10725    | 0.10725    |   0.0 |  0.16
Comm    | 0.3568     | 0.3568     | 0.3568     |   0.0 |  0.54
Output  | 0.012494   | 0.012494   | 0.012494   |   0.0 |  0.02
Modify  | 2.2812     | 2.2812     | 2.2812     |   0.0 |  3.46
Other   |            | 0.2643     |            |       |  0.40

Nlocal:          16000 ave       16000 max       16000 min
Histogram: 1 0 0 0 0 0 0 0 0 0
Nghost:          14589 ave       14589 max       14589 min
Histogram: 1 0 0 0 0 0 0 0 0 0
Neighs:              0 ave           0 max           0 min
Histogram: 1 0 0 0 0 0 0 0 0 0
FullNghs:  1.75293e+06 ave 1.75293e+06 max 1.75293e+06 min
Histogram: 1 0 0 0 0 0 0 0 0 0

Total # of neighbors = 1752930
Ave neighs/atom = 109.55813
Neighbor list builds = 262
Dangerous builds = 0
run  990000
Per MPI rank memory allocation (min/avg/max) = 16.45 | 16.45 | 16.45 Mbytes
   Step          Temp          Press           CPU            Pxx            Pyy            Pzz            Pxy            Pxz            Pyz           KinEng         PotEng         TotEng         Volume           Lx             Ly             Lz          Atoms   
     10000   3791.5112      896559.95      0              895132.33      896726.64      897820.89      595.45004     -2251.3881     -289.70112      7840.9706      11888.91       19729.88       132916.67      40.505733      40.505733      81.011465          16000 
     11000   3760.9381      909710.45      6.5898288      908482.17      909661.07      910988.12     -1307.1551      3225.3585     -2633.6766      7777.7444      11955.924      19733.668      132525.71      40.465978      40.465978      80.931956          16000 
     12000   3824.434       892478.13      13.178376      891857.05      892483.3       893094.04     -882.23032     -3325.8804      2424.5312      7909.0559      11736.576      19645.632      132991.57      40.513339      40.513339      81.026678          16000 
     13000   3792.7731      904375.28      19.768283      901435.92      906787.71      904902.21     -4944.0078      800.14468      937.51145      7843.5801      11783.62       19627.2        132668.24      40.48048       40.48048       80.960961          16000 
     14000   3820.6083      894576.26      26.357873      894277.94      895778.43      893672.4      -5570.401      -3191.7868     -3487.3247      7901.1442      11736.993      19638.137      132917.61      40.505827      40.505827      81.011655          16000 
     15000   3776.1134      901716.94      32.947372      901998.69      900005.32      903146.82     -2293.2944      3133.0003      2934.6127      7809.1274      11841.346      19650.474      132714.6       40.485195      40.485195      80.970391          16000 
     16000   3809.8431      903466.71      39.536301      905546.95      900311.66      904541.53      625.45899      2440.1372     -94.863974      7878.8816      11932.925      19811.807      132663.08      40.479955      40.479955      80.95991           16000 
     17000   3757.7859      892879.1       46.125374      894363.07      892180.99      892093.24      1104.1659     -3820.2954      2414.6996      7771.2254      11747.157      19518.382      133000.2       40.514216      40.514216      81.028431          16000 
     18000   3863.7873      907894.01      52.712924      908818.63      906390.46      908472.95     -4327.7049      3882.5178      2435.9781      7990.4399      11934.063      19924.503      132631         40.476693      40.476693      80.953386          16000 
     19000   3803.5354      897627.62      59.297502      898074.53      897003.86      897804.45      2065.0945     -268.18539      3036.0676      7865.8369      11712.335      19578.172      132873.81      40.501377      40.501377      81.002755          16000 
     20000   3807.5226      899355.2       65.883433      899806.71      896924.64      901334.26     -3257.0415     -2460.4109     -833.79743      7874.0826      11762.857      19636.939      132777.34      40.491574      40.491574      80.983148          16000 
     21000   3841.5025      901453.21      72.469476      900520.11      902937.02      900902.5       5533.5555     -6144.6232      5226.5659      7944.3543      11879.985      19824.339      132782.08      40.492056      40.492056      80.984112          16000 
     22000   3784.1533      895800.42      79.056564      898515.15      891843.58      897042.52      1501.076       1025.2761      682.1735       7825.754       11733.631      19559.385      132825.37      40.496455      40.496455      80.99291           16000 
     23000   3837.7822      909309.53      85.646631      909906.5       909045.04      908977.04      3331.7602     -2347.4079     -1203.3617      7936.6604      11963.276      19899.936      132548.4       40.468288      40.468288      80.936576          16000 
     24000   3782.1883      893537.46      92.235345      895921.73      890353.65      894336.99     -8781.8523      612.02368      202.52736      7821.6904      11751.461      19573.151      133006.68      40.514873      40.514873      81.029747          16000 
     25000   3819.8394      901608.41      98.824176      901699.02      900155.48      902970.71     -5091.3476     -2421.9959      3597.7792      7899.5541      11817.275      19716.829      132700.77      40.483788      40.483788      80.967577          16000 
     26000   3809.5771      899469.65      105.41212      898175.55      902211.19      898022.22      1253.8136     -2049.6809     -356.08811      7878.3314      11848.072      19726.403      132855.22      40.499489      40.499489      80.998977          16000 
     27000   3798.9298      905059.75      112.00227      905200.9       902969.69      907008.66      1334.6306     -908.01815      657.58338      7856.3124      11833.249      19689.561      132629.1       40.476499      40.476499      80.952997          16000 
     28000   3791.8729      893238.88      118.59039      895289.99      894050.13      890376.52      6.6767552      7975.6314      245.30721      7841.7184      11747.962      19589.681      132942.86      40.508393      40.508393      81.016786          16000 
     29000   3777.8917      901483.28      125.17815      901772.32      899839.41      902838.12     -2073.223      -1464.2748      847.51962      7812.805       11796.935      19609.74       132661.53      40.479798      40.479798      80.959596          16000 
     30000   3821.5855      902126.88      131.76253      901394.64      899849.95      905136.03      3814.5432     -1335.1174      4697.252       7903.1651      11914.541      19817.706      132708.88      40.484614      40.484614      80.969227          16000 
     31000   3804.801       895836.8       138.34686      896712.01      895704.27      895094.13      219.35131     -337.61127      2990.1171      7868.4543      11760.28       19628.734      132898.71      40.503908      40.503908      81.007816          16000 
     32000   3808.8388      903959.44      144.93083      900200.03      908207.25      903471.03     -876.49922     -3242.7412      5082.2042      7876.8045      11881.219      19758.023      132659.29      40.47957       40.47957       80.95914           16000 
     33000   3822.8976      899689.16      151.51456      897872.27      899794.08      901401.12      2131.4414     -1565.4413     -1346.1996      7905.8786      11823.734      19729.613      132849.56      40.498914      40.498914      80.997827          16000 
     34000   3791.1001      898682.67      158.09933      897174.59      901143.19      897730.23     -1137.058       5831.2691     -203.55646      7840.1204      11753.355      19593.475      132859.51      40.499925      40.499925      80.99985           16000 
     35000   3774.8196      903717.79      164.68617      902342.31      903254.96      905556.09      31.210034     -3085.9126      1825.9887      7806.4517      12007.282      19813.734      132742.43      40.488025      40.488025      80.976049          16000 
     36000   3816.7044      889510.48      171.2743       888106.21      890157.42      890267.8      -3733.4759     -29.728907     -6562.6492      7893.0709      11622.091      19515.162      133036.13      40.517863      40.517863      81.035727          16000 
     37000   3793.1014      906095.61      177.86124      907398.2       905364.78      905523.85     -2461.0779      1828.6333      5527.3657      7844.259       11994.208      19838.467      132628.42      40.47643       40.47643       80.952861          16000 
     38000   3767.9942      897447.84      184.44854      898741.27      897042.29      896559.94      1500.2969     -21.214759      4607.3825      7792.3365      11799.79       19592.126      132865.15      40.500498      40.500498      81.000996          16000 
     39000   3770.5438      899754.23      191.03738      899243.18      901632.34      898387.17      1060.6699      2902.2334     -840.07561      7797.6091      11800.252      19597.861      132756.91      40.489497      40.489497      80.978995          16000 
     40000   3826.3007      904010.74      197.6241       905053.22      902499.61      904479.38      1131.7275     -4930.7768      194.35792      7912.9162      11890.364      19803.28       132687.28      40.482417      40.482417      80.964834          16000 
     41000   3780.559       894867.44      204.21399      896508.55      893558.62      894535.16     -425.409       -644.05363     -1290.2485      7818.321       11780.159      19598.48       132906.98      40.504747      40.504747      81.009495          16000 
     42000   3821.9902      907760.52      210.80344      907824.39      910250.87      905206.29     -1762.2617      2914.2367      3684.4865      7904.0021      11991.599      19895.601      132578.56      40.471357      40.471357      80.942714          16000 
     43000   3783.4987      894082.26      217.39097      895432.39      892364.42      894449.96     -1870.884      -3156.3537     -3917.0436      7824.4004      11731.01       19555.411      132927.44      40.506826      40.506826      81.013652          16000 
     44000   3787.0378      904646.58      223.97864      905958.65      904037.65      903943.45     -1517.5421      217.75074     -2519.3066      7831.7193      11835.673      19667.392      132637.57      40.47736       40.47736       80.954721          16000 
     45000   3807.0448      901013.38      230.56664      900899.91      902132.77      900007.46     -3605.8941      52.226308     -2632.3488      7873.0944      11848.455      19721.549      132784.47      40.492299      40.492299      80.984597          16000 
     46000   3835.2006      899238.99      237.15502      898420.94      898434.6       900861.44     -322.93896      1252.5444     -3910.6949      7931.3217      11779.548      19710.869      132846.67      40.49862       40.49862       80.997239          16000 
     47000   3812.117       904746.37      243.74399      905596.86      905756.78      902885.48      461.28715     -1356.2631      232.7588       7883.5841      11965.883      19849.467      132690.99      40.482794      40.482794      80.965588          16000 
     48000   3783.5489      890581.27      250.33247      892100.57      891522.28      888120.96     -334.4266       1575.06       -2647.0071      7824.5041      11691.513      19516.017      132991.48      40.51333       40.51333       81.026659          16000 
     49000   3814.2518      905678.59      256.92131      905400.38      907039.51      904595.88      8838.4438     -542.43305     -943.64073      7887.9989      11935.775      19823.774      132637.65      40.477369      40.477369      80.954737          16000 
     50000   3795.8071      896249.61      263.51115      897628.15      897481.31      893639.37     -1322.3751      442.86081     -2636.0141      7849.8545      11773.663      19623.518      132820.29      40.495939      40.495939      80.991877          16000 
     51000   3813.44        901958.44      270.09893      902664.77      904495.22      898715.32      3862.442       4778.4775      617.91935      7886.32        11810.367      19696.687      132656.8       40.479316      40.479316      80.958633          16000 
     52000   3744.7719      898053.75      276.68706      897780.93      898610.41      897769.92      3900.5875     -1216.9283     -4423.6407      7744.3122      11784.1        19528.412      132760.12      40.489823      40.489823      80.979647          16000 
     53000   3816.3296      907107.59      283.27697      906270.04      907752.31      907300.42     -4919.5667      1084.2451      4150.6763      7892.2958      11824.36       19716.656      132562.87      40.469761      40.469761      80.939521          16000 
     54000   3829.4635      892362.36      289.86268      891807.2       892037.94      893241.93     -922.10615      2960.3522     -108.16387      7919.4571      11685.861      19605.318      132969.99      40.511148      40.511148      81.022296          16000 
     55000   3752.2166      905108.47      296.45168      906570.5       902426.49      906328.42     -1.3328517      543.47111     -3446.7872      7759.7079      11959.814      19719.522      132603.46      40.473891      40.473891      80.947781          16000 
     56000   3810.9757      899852.92      303.04083      899331.08      901423.51      898804.17      204.85078     -2476.7808      19.418564      7881.2237      11810.727      19691.951      132775.46      40.491382      40.491382      80.982765          16000 
     57000   3805.8171      900459.35      309.62624      902802.95      899730.04      898845.07      1135.8564     -754.81058      2656.3423      7870.5555      11759.434      19629.99       132716.68      40.485407      40.485407      80.970813          16000 
     58000   3772.1288      900678.95      316.21317      897575.15      904004.83      900456.89      2915.1994      5566.013       5150.5275      7800.8871      11927.297      19728.185      132802.66      40.494147      40.494147      80.988294          16000 
     59000   3757.3926      896160.68      322.80082      896133.08      895209.94      897139.03     -686.99733      3871.3499     -4698.6261      7770.4121      11797.991      19568.403      132831.15      40.497043      40.497043      80.994085          16000 
     60000   3850.9652      903009.06      329.38712      902974.86      903771.28      902281.03     -362.99836      487.66077     -1921.9802      7963.9233      11828.648      19792.571      132717.66      40.485506      40.485506      80.971013          16000 
     61000   3761.3678      895581.82      335.97608      894305.05      896685.19      895755.21      1133.7195     -2456.2996      3784.0079      7778.633       11834.216      19612.849      132874.38      40.501436      40.501436      81.002872          16000 
     62000   3792.9589      904587.25      342.56379      907451.03      901897.74      904413        -407.69657      3273.2216     -3202.5997      7843.9644      11899.951      19743.916      132676.16      40.481286      40.481286      80.962572          16000 
     63000   3815.8157      897585.92      349.15267      896574.05      899377.22      896806.49      607.73717     -2753.4169      1714.1068      7891.2331      11784.371      19675.604      132845.11      40.498462      40.498462      80.996924          16000 
     64000   3780.905       894909.12      355.73935      896345.29      892117.57      896264.5       1341.0909     -2139.154      -3568.8837      7819.0365      11741.445      19560.482      132874.4       40.501438      40.501438      81.002876          16000 
     65000   3793.869       903165.24      362.32999      902047.76      900516.67      906931.28     -3932.5057     -2875.8816      1448.8832      7845.8465      11925.132      19770.978      132684.33      40.482117      40.482117      80.964234          16000 
     66000   3784.4394      895450.27      368.91645      894552.85      897595.47      894202.48     -4595.7796     -244.61147      1373.4166      7826.3458      11760.425      19586.771      132834.18      40.49735       40.49735       80.994701          16000 
     67000   3805.0861      904507.49      375.50441      902466.56      904582.32      906473.58      663.33781      2840.2481      134.85286      7869.0438      11927.246      19796.289      132661.09      40.479753      40.479753      80.959506          16000 
     68000   3827.4178      897272.09      382.09329      895375.13      895643.86      900797.28     -532.53906     -1663.3645      3979.4064      7915.2265      11778.049      19693.275      132920.35      40.506106      40.506106      81.012212          16000 
     69000   3784.508       900476.56      388.68018      902672.06      899122.58      899635.03     -557.62888      2149.6249      3966.766       7826.4878      11825.401      19651.889      132699.09      40.483618      40.483618      80.967236          16000 
     70000   3826.2967      900942.22      395.26882      902475.82      897873.01      902477.84     -1198.5107      994.31248     -6350.8806      7912.9081      11865.446      19778.354      132741.17      40.487897      40.487897      80.975794          16000 
     71000   3764.192       895302.1       401.85597      892635.26      896165.2       897105.83     -2811.9976      1087.7662      1357.4176      7784.4735      11743.594      19528.068      132924.03      40.506479      40.506479      81.012959          16000 
     72000   3815.9113      907908.65      408.44231      906690.7       909691.27      907343.99      754.25847     -3317.0745      399.43261      7891.4308      11904.803      19796.234      132606.49      40.474199      40.474199      80.948397          16000 
     73000   3837.9547      894937.95      415.02955      895338.74      893696.02      895779.08      4480.1366      2441.2        -5506.9687      7937.0171      11688.429      19625.446      132923.9       40.506466      40.506466      81.012932          16000 
     74000   3750.1493      906118.25      421.61808      905775.99      905764.86      906813.91      5373.7465      9.5769769     -417.70282      7755.4326      11881.979      19637.411      132598.44      40.47338       40.47338       80.946759          16000 
     75000   3726.9646      897879.01      428.20586      898678.48      897029.34      897929.19      3436.5042      2194.6053      565.98172      7707.486       11941.49       19648.976      132835.55      40.49749       40.49749       80.994979          16000 
     76000   3823.3661      901108.3       434.79338      903580.92      903342.36      896401.63      1718.9731      3793.4912      653.25602      7906.8475      11913.129      19819.976      132815.87      40.49549       40.49549       80.990981          16000 
     77000   3772.2667      902674.59      441.38305      903874.45      902541.25      901608.08      1788.1612     -4941.5648      888.35787      7801.1723      11958.196      19759.368      132750.3       40.488825      40.488825      80.97765           16000 
     78000   3740.7586      895591.45      447.96998      896384.14      893864.04      896526.17      4396.9222      77.891446      660.13048      7736.0124      11692.319      19428.331      132890.03      40.503026      40.503026      81.006052          16000 
     79000   3831.9879      907237.57      454.55698      906487.33      907888.59      907336.79     -2534.756       1422.636      -3699.2594      7924.6777      11947.064      19871.742      132589.9       40.472511      40.472511      80.945022          16000 
     80000   3815.3669      892674.74      461.1439       894494.39      891638.86      891890.96      1464.6162      2412.2904     -2633.3856      7890.3049      11720.712      19611.017      133043.08      40.518569      40.518569      81.037138          16000 
     81000   3763.0269      906716.23      467.73092      907142.3       906206.18      906800.2       1701.2897     -15.000865     -2666.4243      7782.0641      11812.137      19594.201      132631.82      40.476776      40.476776      80.953552          16000 
     82000   3792.8665      898781.98      474.31946      899985.37      898688.45      897672.11      925.89654      3833.2484      4265.0638      7843.7732      11837.128      19680.901      132810.43      40.494937      40.494937      80.989874          16000 
     83000   3800.4354      899853.23      480.90739      900188.77      901857.02      897513.9      -2407.135      -950.73435      1620.718       7859.4261      11739.99       19599.416      132762.39      40.490054      40.490054      80.980108          16000 
     84000   3796.0001      901286.41      487.49481      903291.11      900825.89      899742.25     -1887.8133     -4873.6953     -1641.7115      7850.2536      11899.813      19750.066      132751.36      40.488933      40.488933      80.977866          16000 
     85000   3810.3767      893279.56      494.08074      894356.81      893186.76      892295.12     -1308.0826     -196.56653      788.3748       7879.985       11739.608      19619.593      132945.55      40.508666      40.508666      81.017331          16000 
     86000   3831.3293      907823.01      500.66873      909408.03      907440.47      906620.54     -942.57907      6896.045      -2374.0359      7923.3156      11885.407      19808.722      132555.41      40.469001      40.469001      80.938002          16000 
     87000   3830.7184      895701.05      507.25404      894738.86      898749.59      893614.68     -3384.9896      1538.3434     -580.36743      7922.0524      11815.378      19737.43       132931.23      40.507211      40.507211      81.014422          16000 
     88000   3794.3004      900379.35      513.84192      899140.43      901497.02      900500.59      3216.9516      2696.5802      6471.2438      7846.7387      11796.4        19643.139      132742.89      40.488072      40.488072      80.976144          16000 
     89000   3785.1969      901486.32      520.42935      900096.28      902161.89      902200.81     -2555.0625      2327.3915     -3659.4136      7827.9123      11918.516      19746.429      132711.78      40.484909      40.484909      80.969817          16000 
     90000   3772.7846      900140.59      527.01877      896072.6       903534.42      900814.74      1519.5753     -680.12344      1046.2359      7802.2433      11755.798      19558.041      132779.76      40.49182       40.49182       80.98364           16000 
     91000   3819.5729      900169.72      533.60549      900698.13      900126.95      899684.1      -185.98065     -1642.9139      2804.2527      7899.0031      11853.964      19752.967      132702.37      40.483951      40.483951      80.967902          16000 
     92000   3770.0696      891950.97      540.19048      890354.29      891453.15      894045.48     -3272.3589      59.263607      4064.3035      7796.6285      11657.146      19453.774      132934.98      40.507592      40.507592      81.015184          16000 
     93000   3805.9283      907368.21      546.77759      907597.61      905907.15      908599.86      2812.8314      1818.4982      1874.0854      7870.7854      11941.794      19812.579      132639.69      40.477576      40.477576      80.955153          16000 
     94000   3764.2282      900344.81      553.36547      898072.03      901742.83      901219.57     -463.02042      1628.565      -2228.6849      7784.5485      11848.15       19632.698      132803.35      40.494218      40.494218      80.988435          16000 
     95000   3832.0817      898407.2       559.95022      899083.61      897947.44      898190.55     -6108.0822     -1343.9024     -6523.7831      7924.8716      11881.524      19806.396      132893.65      40.503394      40.503394      81.006787          16000 
     96000   3760.0785      905046.8       566.53905      903079.24      904810.41      907250.76      4160.4071     -1242.8823      8658.3851      7775.9666      11940.276      19716.243      132703.76      40.484093      40.484093      80.968185          16000 
     97000   3770.5342      896061.2       573.12609      896464.83      894809.06      896909.71      3251.5021     -3239.2443      4975.8961      7797.5893      11747.428      19545.017      132861.58      40.500136      40.500136      81.000271          16000 
     98000   3811.8811      903807.65      579.71227      904308.21      902727.27      904387.48     -3434.1706      715.94809      2517.7517      7883.0962      11905.303      19788.399      132704.34      40.484152      40.484152      80.968304          16000 
     99000   3762.4428      893130.64      586.29938      893083.85      893276.3       893031.76     -4944.5036      1980.4985     -3957.4171      7780.856       11737.149      19518.005      132944.4       40.508549      40.508549      81.017098          16000 
    100000   3792.7059      905038.72      592.89152      903549.56      905001.11      906565.48      1773.2335      3777.5785     -3643.4631      7843.4411      11974.895      19818.337      132641.65      40.477776      40.477776      80.955551          16000 
    101000   3832.399       898847.96      599.47709      901301.6       901248.83      893993.46     -2714.8874      271.30663     -3320.3077      7925.5279      11872.231      19797.759      132854.42      40.499408      40.499408      80.998816          16000 
    102000   3788.821       898795.43      606.06506      897446.42      898854.76      900085.12      7213.3862      417.4516       751.72598      7835.407       11787.827      19623.234      132796.02      40.493473      40.493473      80.986945          16000 
    103000   3831.5177      900274.82      612.65521      899026.27      902583.5       899214.68      4043.7439      66.367022      977.96418      7923.7053      11800.418      19724.123      132788.76      40.492735      40.492735      80.985469          16000 
    104000   3846.1625      897011.13      619.24008      897637.46      895463.52      897932.41      2145.8181      4639.4858     -1160.9675      7953.9911      11773.5        19727.491      132911.32      40.505189      40.505189      81.010377          16000 
    105000   3798.2028      901344.32      625.8274       899458.14      902442.71      902132.11      2639.694       1323.0891     -7639.2465      7854.8089      11846.127      19700.936      132718.95      40.485637      40.485637      80.971274          16000 
    106000   3801.8222      897986.95      632.41491      898400.24      899503.51      896057.11      3820.9558      868.3619       5881.117       7862.294       11856.296      19718.59       132828.1       40.496733      40.496733      80.993467          16000 
    107000   3806.2914      899311.99      639.00252      899271.72      898945.75      899718.5      -4397.9058      4808.9236     -1822.5971      7871.5365      11900.829      19772.365      132805.28      40.494413      40.494413      80.988827          16000 
    108000   3805.7404      904463.94      645.58931      907024.67      903068.55      903298.59      4406.8065      2448.1364     -1574.1997      7870.397       11866.599      19736.996      132608.62      40.474415      40.474415      80.948831          16000 
    109000   3803.0862      892043.02      652.17637      890587.73      892652.01      892889.32     -611.97068      1083.8118     -3177.6412      7864.9079      11756.77       19621.678      132997.54      40.513946      40.513946      81.027891          16000 
    110000   3798.3961      906216.69      658.7621       905352.37      907901.07      905396.64     -2727.8454     -508.71514      967.78168      7855.2086      11863.821      19719.03       132646.34      40.478253      40.478253      80.956506          16000 
    111000   3766.8561      897692.43      665.34912      898850.78      896891.57      897334.93      2470.4697     -1432.1732     -2659.8487      7789.983       11864.941      19654.924      132859.6       40.499934      40.499934      80.999867          16000 
    112000   3776.6061      901819.82      671.93514      900051.89      900010.8       905396.78     -1381.9098      2481.1286      2743.0081      7810.1463      11856.399      19666.546      132711.71      40.484902      40.484902      80.969803          16000 
    113000   3803.1742      898241.81      678.52085      899299.29      898502.92      896923.22     -982.07851     -1042.1285      133.85426      7865.0899      11763.787      19628.877      132806.59      40.494546      40.494546      80.989093          16000 
    114000   3811.5789      897860.54      685.1077       895392.74      897809.11      900379.77     -561.54703     -2042.4612     -1723.7196      7882.4712      11808.801      19691.272      132840.7       40.498013      40.498013      80.996026          16000 
    115000   3819.5191      904857.66      691.69547      901079.21      906357.66      907136.11     -3390.327      -2699.6819     -794.44436      7898.8917      11886.221      19785.112      132644.91      40.478107      40.478107      80.956214          16000 
    116000   3767.8747      892357.39      698.28233      890605.6       892181.81      894284.77     -489.90264      2290.5015     -904.97888      7792.0895      11776.522      19568.612      132959.74      40.510107      40.510107      81.020214          16000 
    117000   3818.978       903091.69      704.86888      902605.91      904108.4       902560.75      4342.0157      3374.5906     -5147.393       7897.7727      11969.772      19867.545      132735.73      40.487344      40.487344      80.974688          16000 
    118000   3797.4907      902721.48      711.4585       904875.16      902510         900779.28      3552.6334     -5710.4906     -4603.5054      7853.3362      11808.062      19661.398      132697.26      40.483432      40.483432      80.966864          16000 
    119000   3850.2261      896764.31      718.06079      900770.76      896381.84      893140.32      3271.1777     -2265.2426     -2698.769       7962.3949      11708.232      19670.627      132839.45      40.497886      40.497886      80.995772          16000 
    120000   3874.7725      906127.31      724.65596      909766.89      906581         902034.04      255.7635       66.961         1047.5425      8013.1577      11826.837      19839.994      132657.26      40.479364      40.479364      80.958728          16000 
    121000   3793.7184      891197.27      731.25628      893640.07      888932.04      891019.69      7352.2081      3137.3865      764.92153      7845.535       11715.079      19560.614      132982.66      40.512434      40.512434      81.024868          16000 
    122000   3801.5702      904002.53      737.86836      903637.69      905023.13      903346.76      1851.9053     -2341.4178      3170.5175      7861.7728      11877.745      19739.518      132599.51      40.473489      40.473489      80.946978          16000 
    123000   3826.1825      898450.29      744.4804       900853.62      894865.2       899632.07     -883.32146      627.0545       6281.0736      7912.672       11764.808      19677.48       132815.27      40.49543       40.49543       80.990859          16000 
    124000   3847.9404      900613.64      751.09072      900655.94      901840.96      899344.03      762.25403     -2413.9331     -3306.6288      7957.6679      11780.313      19737.98       132802.23      40.494104      40.494104      80.988208          16000 
    125000   3761.6327      901905.71      757.70351      902498.27      901568.15      901650.73      994.1325      -2911.3476      128.83329      7779.1809      11908.89       19688.071      132695.38      40.48324       40.48324       80.96648           16000 
    126000   3823.5568      897900.46      764.31994      898815.9       897662.24      897223.24     -578.93741      3570.017       2972.6023      7907.2418      11836.874      19744.116      132803.89      40.494273      40.494273      80.988546          16000 
    127000   3764.1166      900745.15      770.93131      898847.07      901625.47      901762.9      -4899.7999      96.379088     -2206.7507      7784.3177      11845.203      19629.52       132683.97      40.48208       40.48208       80.96416           16000 
    128000   3800.8328      892052.86      777.54231      893286.58      888735.35      894136.65     -4746.6003      48.760892      3652.3225      7860.2478      11781.345      19641.593      133009.27      40.515136      40.515136      81.030273          16000 
    129000   3800.197       908519.03      784.15426      909019.34      910966.3       905571.45     -2363.7834     -2376.2677      530.83045      7858.933       11940.074      19799.007      132579.94      40.471497      40.471497      80.942995          16000 
    130000   3754.0403      894981.28      790.77285      893171.91      896605.8       895166.12     -4368.1779      2295.1283      502.7937       7763.4794      11815.255      19578.734      132885.75      40.502591      40.502591      81.005182          16000 
    131000   3809.4973      899828.69      797.39678      900814.62      897189.63      901481.82      295.36707     -4675.0994     -10069.767      7878.1664      11833.526      19711.692      132816.77      40.495582      40.495582      80.991164          16000 
    132000   3786.9218      905935.25      804.01777      905387.02      906491.07      905927.67     -3104.8342     -1935.9297      50.653365      7831.4796      11842.431      19673.91       132642.79      40.477892      40.477892      80.955783          16000 
    133000   3810.3239      895749.92      810.63604      897397.61      894740.33      895111.8      -3743.9157      3139.6664      2962.2423      7879.8758      11797.899      19677.774      132919.48      40.506017      40.506017      81.012034          16000 
    134000   3782.1281      908927.74      817.25415      906647.69      912094.5       908041.02     -2058.1104     -255.03549      1098.2122      7821.5659      11953.853      19775.419      132579.98      40.471501      40.471501      80.943002          16000 
    135000   3786.9595      890881.92      823.87244      892483.11      891524.72      888637.91      1832.2059      1884.1751     -607.8704       7831.5574      11643.927      19475.484      133050.15      40.519287      40.519287      81.038574          16000 
    136000   3845.259       902786.58      830.49111      901369.97      905218.87      901770.9      -1098.218      -3704.8429      3044.3114      7952.1228      11819.819      19771.942      132732.41      40.487006      40.487006      80.974013          16000 
    137000   3804.8094      898471.74      837.10931      899727.49      896682.22      899005.52      616.11376      5070.664      -2236.0892      7868.4717      11854.104      19722.576      132815.39      40.495441      40.495441      80.990882          16000 
    138000   3765.1846      900855.91      843.73209      898998.49      899125.04      904444.2       1133.1878      2132.3704     -1426.3843      7786.5263      11784.2        19570.727      132711.44      40.484873      40.484873      80.969747          16000 
    139000   3812.9055      899974.12      850.351        898427.36      901219.73      900275.25      55.952561      1591.0067     -493.58218      7885.2146      11890.553      19775.768      132775.7       40.491407      40.491407      80.982814          16000 
    140000   3795.4195      901827.16      856.96846      900663.72      903687.49      901130.27     -3864.0372     -3102.858      -4758.8632      7849.0529      11793.14       19642.193      132742.6       40.488041      40.488041      80.976083          16000 
    141000   3824.7211      895701.31      863.58767      897049.8       892957.52      897096.61      1931.6008      1528.3681     -1.6657207      7909.6498      11738.392      19648.042      132927.06      40.506788      40.506788      81.013576          16000 
    142000   3780.122       905268.15      870.20938      907484.16      905335.08      902985.19      44.329705     -1224.8466     -384.65652      7817.4173      11980.962      19798.379      132641.95      40.477806      40.477806      80.955613          16000 
    143000   3801.3814      898342.39      876.82802      898709.03      897773.29      898544.83     -429.15171      2637.0957      5051.9274      7861.3824      11724.92       19586.302      132866.48      40.500633      40.500633      81.001265          16000 
    144000   3820.9535      905430.12      883.44924      908099.31      901817.64      906373.41      2502.6566      1049.0581      4854.5645      7901.8582      11835.168      19737.026      132663.73      40.480021      40.480021      80.960043          16000 
    145000   3780.7366      892408.09      890.06957      894374.42      891102.67      891747.19     -4832.7747      3341.0409     -1588.0488      7818.6882      11908.39       19727.078      132951.93      40.509313      40.509313      81.018627          16000 
    146000   3814.4259      904124.43      896.68944      904352.99      902741.33      905278.98      2058.4477     -150.10567      1113.3699      7888.3588      11852.016      19740.375      132710.7       40.484798      40.484798      80.969596          16000 
    147000   3805.9165      894819.82      903.30974      892539.58      895823.33      896096.55     -4496.6464      3324.6445      2554.8616      7870.7611      11706.374      19577.135      132924.94      40.506572      40.506572      81.013144          16000 
    148000   3835.0935      905692.16      909.93047      906245.36      906908.32      903922.81      1451.8829      1612.1697     -983.36919      7931.1002      11901.882      19832.983      132694.72      40.483174      40.483174      80.966347          16000 
    149000   3823.3709      899235.08      916.55282      899751.52      897667.47      900286.24      188.83488      4302.3665      2092.1124      7906.8574      11774.506      19681.363      132839.53      40.497894      40.497894      80.995788          16000 
    150000   3748.1458      896878.68      923.17463      894782.6       898709.52      897143.93     -612.48907      155.02667     -1906.6594      7751.2894      11864.546      19615.835      132850.43      40.499002      40.499002      80.998004          16000 
    151000   3793.9809      905285.05      929.79314      906412.32      904596.59      904846.25      1233.8703      130.31179      1160.8617      7846.078       11902.727      19748.805      132644.68      40.478084      40.478084      80.956168          16000 
    152000   3807.9407      896408.97      936.415        897623.25      896700.91      894902.76     -871.38676      1540.5204     -349.36573      7874.9473      11629.191      19504.138      132850.31      40.49899       40.49899       80.99798           16000 
    153000   3811.2924      902491.6       943.03612      900924.73      905154.77      901395.31      321.4243      -2665.2082      1290.0843      7881.8786      11865.403      19747.282      132724.53      40.486204      40.486204      80.972409          16000 
    154000   3814.6353      901040.12      949.65411      898562.18      901656.26      902901.9      -4311.886       2126.061       2619.3354      7888.7918      11837.996      19726.788      132765.34      40.490354      40.490354      80.980708          16000 
    155000   3790.8733      897614.94      956.26888      896350.62      896431.34      900062.88      5028.5394      4639.6032      1757.7818      7839.6513      11751.469      19591.12       132852.11      40.499172      40.499172      80.998345          16000 
    156000   3820.6091      901800.97      962.8859       901881.56      900906.26      902615.1      -1201.8841      1673.161      -2785.7783      7901.146       11892.003      19793.149      132791.34      40.492996      40.492996      80.985993          16000 
    157000   3750.3964      902203.02      969.50038      903598.15      902045.14      900965.78     -3356.0259      1161.3434      1748.8931      7755.9438      11920.462      19676.405      132748.47      40.488638      40.488638      80.977277          16000 
    158000   3825.8417      895258.13      976.1162       896233.43      896074.15      893466.8      -1796.667      -1969.2945      1619.359       7911.9671      11728.693      19640.66       132911.42      40.505199      40.505199      81.010398          16000 
    159000   3819.6559      904060.45      982.73356      905396.87      903725.98      903058.51     -3368.541      -3503.2059      2240.7615      7899.1748      11917.617      19816.792      132671.3       40.480792      40.480792      80.961583          16000 
    160000   3744.8475      895047.49      989.34889      893783.31      897438.71      893920.45      4025.9276      133.78005     -2950.6194      7744.4684      11687.292      19431.76       132895.03      40.503534      40.503534      81.007068          16000 
    161000   3836.9443      905115.01      995.96534      907695.08      903285.96      904363.97     -804.29826     -233.50628      796.75415      7934.9276      11910.761      19845.689      132669.87      40.480646      40.480646      80.961292          16000 
    162000   3798.2686      898483.88      1002.5818      898508.6       899112.91      897830.12     -1917.8831     -3564.8844      2945.8442      7854.9451      11771.406      19626.351      132840.25      40.497968      40.497968      80.995936          16000 
    163000   3807.5391      901846.33      1009.1972      902386.28      904346.45      898806.26      1718.5089     -831.85191     -2709.1859      7874.1167      11787.59       19661.707      132700.63      40.483774      40.483774      80.967548          16000 
    164000   3759.6251      899691.11      1015.8158      899221.86      900244.11      899607.36      2010.8924      3128.7028     -2809.1858      7775.029       11891.927      19666.956      132805.93      40.494479      40.494479      80.988959          16000 
    165000   3812.6039      894585.91      1022.4304      893169.31      895428.06      895160.35     -2879.0472     -2473.1861     -1075.708       7884.591       11650.235      19534.826      132879.81      40.501987      40.501987      81.003974          16000 
    166000   3787.7192      905322.94      1029.0467      906062.86      906019.04      903886.92      1991.0072     -643.22189      4571.7345      7833.1285      11882.024      19715.152      132615.22      40.475087      40.475087      80.950173          16000 
    167000   3809.5534      895242.46      1035.6623      892821.35      895737.33      897168.71      3096.6173      730.46691      5011.1319      7878.2823      11766.455      19644.738      132863.09      40.500289      40.500289      81.000578          16000 
    168000   3772.9921      903596.42      1042.2793      902057.68      904625.59      904106         5063.8124      4176.0378     -1823.4007      7802.6724      11956.378      19759.051      132682.7       40.481951      40.481951      80.963901          16000 
    169000   3837.9944      895228.59      1048.8963      897356.88      892220.28      896108.6      -3857.0704      1207.2079      2521.3362      7937.0992      11858.445      19795.545      132942.67      40.508373      40.508373      81.016747          16000 
    170000   3827.4543      905350.52      1055.5068      905879.22      903762.18      906410.17      2568.6844      439.50019     -6384.9277      7915.302       11856.204      19771.506      132659.2       40.479561      40.479561      80.959122          16000 
    171000   3793.2418      890440.67      1062.1166      889617.54      890670.49      891033.98      251.91659     -87.234995     -1036.8718      7844.5494      11664.715      19509.265      133037.44      40.517996      40.517996      81.035992          16000 
    172000   3842.2947      905238.41      1068.7283      902450.73      908653.02      904611.49      997.06557      443.77894      21.101478      7945.9925      11877.635      19823.628      132670.54      40.480714      40.480714      80.961428          16000 
    173000   3773.7795      898662.58      1075.3407      896948.09      899405.58      899634.07      3330.6355      7127.4292      1300.2997      7804.3008      11863.399      19667.699      132789.67      40.492827      40.492827      80.985655          16000 
    174000   3786.9427      900003.98      1081.9423      897313.51      903581.27      899117.15     -1592.2417      1098.6943     -5512.6571      7831.5227      11783.464      19614.986      132770.85      40.490914      40.490914      80.981828          16000 
    175000   3800.6254      907004.74      1088.5458      903716.04      909284.52      908013.64      3229.2348      5915.8958      1740.4629      7859.8191      11904.372      19764.191      132631.77      40.476771      40.476771      80.953542          16000 
    176000   3791.6377      896609.75      1095.1476      895789.17      894740.19      899299.89      1180.05       -1416.7213      2694.4276      7841.2321      11728.46       19569.692      132892.15      40.503241      40.503241      81.006483          16000 
    177000   3800.573       906256.33      1101.7494      906221.72      905602.12      906945.15     -5332.8721      555.51435      2202.4132      7859.7105      11921.239      19780.95       132617.65      40.475335      40.475335      80.950669          16000 
    178000   3764.3378      896576.23      1108.3499      898459.69      892848.6       898420.4       3228.2996      7883.5778      889.21001      7784.775       11760.902      19545.677      132863.2       40.5003        40.5003        81.0006            16000 
    179000   3778.8088      903072.5       1114.9515      904374.52      901819.43      903023.54      3090.9194      3604.578       6257.1632      7814.7015      11931.311      19746.013      132733.34      40.4871        40.4871        80.974201          16000 
    180000   3780.8877      896905.69      1121.5537      896406.99      897731.83      896578.25      55.316767      541.95691      958.88135      7819.0007      11719.181      19538.181      132851.76      40.499137      40.499137      80.998275          16000 
    181000   3771.025       900458.91      1128.1573      899538.86      901923.51      899914.36      2528.4296      24.602526     -3354.9771      7798.6044      11881.498      19680.102      132750.37      40.488832      40.488832      80.977665          16000 
    182000   3793.3947      904927.61      1134.76        907098.47      901698.01      905986.36     -5232.9484      4621.5141      6224.6374      7844.8657      11869.788      19714.654      132634.48      40.477047      40.477047      80.954093          16000 
    183000   3820.0171      892810.72      1141.3633      892908.21      893593.38      891930.57     -2641.4649      3862.8474      2099.5582      7899.9217      11791.885      19691.807      132994.29      40.513615      40.513615      81.02723           16000 
    184000   3806.9833      905663.24      1147.9658      904700.09      905168.39      907121.23      1275.6506     -4384.8329     -938.697        7872.9673      11876.615      19749.582      132596.03      40.473134      40.473134      80.946269          16000 
    185000   3809.8535      893375.62      1154.5694      894276.67      894655.06      891195.13     -4107.184       3102.0073     -659.30754      7878.9029      11810.9        19689.803      132931.6       40.507248      40.507248      81.014496          16000 
    186000   3788.9978      902249.66      1161.1721      900596.89      901318.77      904833.32     -6048.6773      307.72559     -4080.4298      7835.7727      11913.615      19749.388      132671.29      40.48079       40.48079       80.96158           16000 
    187000   3800.7035      895192.31      1167.7765      893000.31      897926.18      894650.43     -3092.9237     -170.2685       4053.082       7859.9804      11827.002      19686.982      132897.13      40.503747      40.503747      81.007493          16000 
    188000   3804.4125      903794.14      1174.3776      901137.25      906078.87      904166.3       537.37521     -7428.8982     -1352.4058      7867.6509      11864.619      19732.27       132627.41      40.476327      40.476327      80.952653          16000 
    189000   3795.4665      892554.11      1180.9784      893665.41      892923.22      891073.7      -1895.7637     -283.16008      3854.1319      7849.1502      11868.485      19717.636      132956.47      40.509775      40.509775      81.01955           16000 
    190000   3778.4407      907471.84      1187.5765      905930.91      908515.97      907968.63     -329.44308      1275.7959      6442.838       7813.9403      11968.055      19781.995      132563.94      40.469869      40.469869      80.939739          16000 
    191000   3793.8719      896760.9       1194.1719      897017.38      896201.38      897063.92     -602.63372     -5097.2014      2074.7184      7845.8526      11806.831      19652.684      132892.27      40.503253      40.503253      81.006507          16000 
    192000   3783.9297      898149.03      1200.767       899079.67      895544.95      899822.48      1665.5931      1636.7171     -549.38809      7825.2918      11851.059      19676.351      132829.16      40.496841      40.496841      80.993681          16000 
    193000   3833.3825      903111.52      1207.3606      901640.46      903307.38      904386.73     -3701.7769      9.0155027     -1118.0468      7927.5617      11808.921      19736.483      132667.15      40.480369      40.480369      80.960739          16000 
    194000   3834.9568      895582.25      1213.948       893846.45      895706.85      897193.45      1301.4948      4325.6755     -5043.9313      7930.8175      11833.526      19764.343      132914         40.505461      40.505461      81.010921          16000 
    195000   3818.1345      907867.97      1220.5269      907796.01      911226.66      904581.25      922.64304     -2282.9472      1072.5372      7896.0283      11858.455      19754.483      132536.75      40.467102      40.467102      80.934205          16000 
    196000   3823.9362      893686.65      1227.1075      895838.33      893739.88      891481.73     -4353.9204     -4423.9125      2467.5082      7908.0265      11803.689      19711.716      132915.57      40.50562       40.50562       81.01124           16000 
    197000   3814.1583      902304.96      1233.6872      902169.76      901551.25      903193.86      2075.9085      3781.6767      647.9221       7887.8054      11868.836      19756.642      132698.11      40.483518      40.483518      80.967036          16000 
    198000   3817.2297      897785.46      1240.2663      895862.83      896866.19      900627.36      342.60744     -6509.2938      1955.7276      7894.1572      11753.048      19647.205      132851.41      40.499102      40.499102      80.998204          16000 
    199000   3774.9298      896180.2       1246.8468      895545.42      897147.61      895847.59     -1610.3041      1993.2362      1684.2133      7806.6797      11678.032      19484.711      132838.59      40.497799      40.497799      80.995598          16000 
    200000   3842.867       909933.84      1253.4328      909983.41      910993.3       908824.82     -4446.0502     -1339.4376     -492.33045      7947.176       11933.232      19880.408      132556.17      40.469079      40.469079      80.938158          16000 
    201000   3810.3162      890275.59      1260.0109      889832.96      889924.38      891069.44     -155.24065      317.46365     -2243.858       7879.8598      11643.21       19523.07       133058.54      40.520138      40.520138      81.040276          16000 
    202000   3810.615       900336.23      1266.5905      902591.26      900807.22      897610.2      -2258.554      -6405.5953      3440.8986      7880.4778      11956.757      19837.235      132718.87      40.485629      40.485629      80.971258          16000 
    203000   3819.514       898873.53      1273.1698      897714.23      897847.7       901058.67     -196.69869      4829.249       810.20522      7898.8812      11800.11       19698.991      132814.43      40.495343      40.495343      80.990686          16000 
    204000   3811.485       904111.79      1279.7516      906547.08      902658.8       903129.5       760.76566      2427.6483     -1013.5657      7882.277       11851.654      19733.931      132676.8       40.48135       40.48135       80.962701          16000 
    205000   3814.0901      896607.5       1286.3302      895759.71      898784.52      895278.27     -132.81561      3824.796       8025.269       7887.6644      11882.248      19769.912      132868.08      40.500796      40.500796      81.001591          16000 
    206000   3781.6067      905035.02      1292.9088      901662.33      907827.01      905615.71      278.13724     -3945.6235      492.64557      7820.4877      11922.101      19742.589      132660.65      40.479708      40.479708      80.959416          16000 
    207000   3846.1422      895648.05      1299.4893      894168.52      896446.67      896328.96      2071.6508     -670.72571      2929.7498      7953.9492      11785.891      19739.84       132945.32      40.508642      40.508642      81.017283          16000 
    208000   3776.8125      902731         1306.0694      901577.06      904578.09      902037.86     -5125.3807     -1250.0191     -109.00823      7810.5732      11896.393      19706.967      132743.91      40.488175      40.488175      80.976349          16000 
    209000   3817.589       899559.51      1312.6507      899226.3       898685.33      900766.89     -2837.9265     -2505.6399      1309.4401      7894.9003      11803.658      19698.558      132818.2       40.495727      40.495727      80.991454          16000 
    210000   3823.4868      899039.8       1319.2307      897271.52      899304.96      900542.93     -5112.6833      1133.1517      3274.1425      7907.0972      11771.652      19678.749      132830.63      40.49699       40.49699       80.993979          16000 
    211000   3812.0352      899264.95      1325.8123      900144.63      898932.77      898717.46     -164.94802     -1473.7786     -6772.4685      7883.4148      11813.959      19697.374      132761.85      40.489999      40.489999      80.979997          16000 
    212000   3821.4341      896883.4       1332.3918      897030.48      899120.44      894499.28      4903.7236     -1315.5083     -2160.83        7902.852       11894.779      19797.631      132843.92      40.49834       40.49834       80.996681          16000 
    213000   3796.2629      900561.35      1338.9728      896415.91      904991.8       900276.35      3458.8043      861.12644      3541.9744      7850.7972      11854.928      19705.725      132734.62      40.48723       40.48723       80.974461          16000 
    214000   3802.2957      902820.93      1345.5534      903820.55      902726.57      901915.68      3450.4822     -2929.8115      3478.3019      7863.2731      11882.282      19745.556      132704.57      40.484175      40.484175      80.96835           16000 
    215000   3818.2708      898719.06      1352.1324      897367.21      898406.11      900383.85      3791.2612      957.60981     -2358.2416      7896.3102      11749.414      19645.724      132864.46      40.500428      40.500428      81.000855          16000 
    216000   3789.2233      901951.95      1358.7123      904459.94      900951.33      900444.57     -1743.1338     -1032.618       1223.5868      7836.2391      11792.55       19628.789      132721.03      40.485849      40.485849      80.971699          16000 
    217000   3790.7574      897865.04      1365.2918      899091.78      895419.78      899083.57      2299.8528     -1758.9292      985.53251      7839.4117      11920.416      19759.828      132830.59      40.496986      40.496986      80.993973          16000 
    218000   3800.0882      902774.56      1371.8709      900507.47      905189.84      902626.38      7286.3739      1592.7802     -2667.5419      7858.7081      11860.642      19719.35       132713.1       40.485042      40.485042      80.970084          16000 
    219000   3783.6458      896414.14      1378.4519      897429.73      896901.61      894911.07     -1053.6262     -2678.3288     -1462.946       7824.7045      11836.541      19661.245      132867.95      40.500782      40.500782      81.001564          16000 
    220000   3794.8286      901946.51      1385.0307      902482.76      902043.63      901313.12      5801.4612      5760.3584      2777.9276      7847.8309      11805.938      19653.769      132757.11      40.489517      40.489517      80.979035          16000 
    221000   3809.9272      903342.98      1391.6088      903177.87      905092.84      901758.25     -780.45914     -1051.5957     -365.14394      7879.0553      11907.294      19786.35       132681.19      40.481797      40.481797      80.963594          16000 
    222000   3749.3611      895977.55      1398.1867      897654.95      895614.84      894662.87      1471.54       -4421.409       5911.966       7753.8027      11800.433      19554.236      132914.42      40.505504      40.505504      81.011008          16000 
    223000   3791.7715      903372.34      1404.7671      906267.7       903506.65      900342.69     -1565.6116      5000.6452      2222.99        7841.5088      11890.975      19732.484      132709.59      40.484685      40.484685      80.969371          16000 
    224000   3744.9287      895238.95      1411.3466      897022.88      896629.82      892064.13     -2656.0012     -2673.8286      969.09235      7744.6364      11806.169      19550.805      132865.17      40.5005        40.5005        81.001             16000 
    225000   3776.8046      903312.45      1417.9251      904063.59      902033.17      903840.61     -5000.5702     -3357.3028     -273.97678      7810.5567      11864.184      19674.741      132664.25      40.480075      40.480075      80.960149          16000 
    226000   3821.7171      897606.53      1424.5029      896899.7       896849.03      899070.85      4501.7353     -150.92873     -4239.3911      7903.4373      11828.872      19732.309      132859.26      40.499899      40.499899      80.999798          16000 
    227000   3803.7738      900362.49      1431.0802      899947.64      903749.79      897390.06      1200.571       734.52323     -3813.1119      7866.3299      11816.619      19682.949      132786.43      40.492498      40.492498      80.984996          16000 
    228000   3804.5685      903099.52      1437.6591      904152.7       903148.93      901996.93     -1225.6915      3046.2897     -3699.4727      7867.9734      11847.146      19715.119      132730.44      40.486805      40.486805      80.97361           16000 
    229000   3782.1408      893805.26      1444.2372      890482.41      893775.61      897157.77     -4710.1958      4496.2733      1457.4259      7821.5922      11812.427      19634.019      132969.62      40.51111       40.51111       81.02222           16000 
    230000   3823.1716      910768.02      1450.8156      910918.03      911248.52      910137.51      95.819274      1757.9264     -3303.3118      7906.4452      12051.157      19957.602      132532.13      40.466632      40.466632      80.933265          16000 
    231000   3813.4766      894724.29      1457.3954      893237.62      896680.49      894254.77      2562.9751     -1514.7529     -2519.2908      7886.3958      11681.774      19568.17       132942.68      40.508374      40.508374      81.016749          16000 
    232000   3839.6297      905476.03      1463.9731      906387.53      905016.64      905023.93      1574.7759     -4008.9346     -17.075989      7940.4812      11935.995      19876.476      132699.17      40.483626      40.483626      80.967252          16000 
    233000   3804.419       897410.57      1470.552       898195.72      895238.01      898797.98     -2046.1265      583.29513     -809.78762      7867.6642      11734.318      19601.983      132870.85      40.501077      40.501077      81.002154          16000 
    234000   3852.9787      903673.32      1477.1304      903669.32      904075.7       903274.93      887.72652     -2090.5045      2961.9747      7968.0874      11910.556      19878.643      132793.95      40.493262      40.493262      80.986525          16000 
    235000   3786.0158      899634.84      1483.7076      899905.78      899422.53      899576.22     -900.76942      1607.7385      3265.4417      7829.6059      11771.313      19600.919      132847.79      40.498733      40.498733      80.997467          16000 
    236000   3812.224       903862.6       1490.286       902824.21      906812.15      901951.43     -635.51272      1323.634       1913.6225      7883.8053      11934.383      19818.189      132724.35      40.486186      40.486186      80.972373          16000 
    237000   3798.8503      894709.46      1496.8642      896926.84      894236.18      892965.36      274.95589      1830.9622     -2073.127       7856.148       11729.019      19585.167      132966.23      40.510766      40.510766      81.021532          16000 
    238000   3783.0396      905467.96      1503.4439      906525.96      907235.59      902642.33      2906.4619      1504.0536     -1587.5267      7823.451       12002.95       19826.401      132610.45      40.474601      40.474601      80.949203          16000 
    239000   3787.8779      901424.08      1510.0236      900512.14      902018.73      901741.35      5932.8312      1200.4623     -3328.2417      7833.4568      11768.957      19602.414      132772.04      40.491035      40.491035      80.98207           16000 
    240000   3790.0984      895963.87      1516.604       898201.2       895272.8       894417.62     -3037.2039      1174.2103     -4434.6153      7838.0489      11888.857      19726.906      132914.76      40.505538      40.505538      81.011075          16000 
    241000   3779.107       903293.43      1523.1817      905000.66      901497.11      903382.53     -396.95651      4225.8686      4824.9811      7815.3183      11837.185      19652.503      132691.51      40.482847      40.482847      80.965695          16000 
    242000   3813.8726      899495.52      1529.7625      897806.08      901903.26      898777.24      2027.6084      3026.4161      82.864313      7887.2146      11842.84       19730.054      132805.74      40.49446       40.49446       80.98892           16000 
    243000   3785.581       901234.66      1536.34        904167.47      900409.11      899127.39      2011.2028     -777.63643      5441.8972      7828.7066      11866.654      19695.36       132704.05      40.484123      40.484123      80.968245          16000 
    244000   3765.5549      896250.49      1542.9181      892987.76      896811.45      898952.27     -530.08404     -2703.2184     -1001.8913      7787.2921      11882.944      19670.236      132895.56      40.503588      40.503588      81.007175          16000 
    245000   3798.2078      899782.95      1549.4964      899294.2       899126.99      900927.65      3875.9399     -2344.3177      2058.6793      7854.8193      11718.532      19573.351      132772.1       40.491041      40.491041      80.982083          16000 
    246000   3802.3582      902908.49      1556.0762      906472.86      900813.82      901438.78     -1190.1937     -1323.1571     -244.15381      7863.4024      11890.418      19753.82       132719.33      40.485676      40.485676      80.971353          16000 
    247000   3799.0511      896370.9       1562.6557      898963.52      895405.28      894743.91      256.49496     -3431.941      -4803.7275      7856.5633      11902.639      19759.202      132913.55      40.505415      40.505415      81.010831          16000 
    248000   3795.086       906240.91      1569.2357      903350.91      907843.38      907528.43      1979.3641      241.37416      2739.9699      7848.3632      11994.714      19843.077      132682.27      40.481907      40.481907      80.963814          16000 
    249000   3793.7382      894328.73      1575.8148      896352.54      893964.67      892668.98      1402.1421      2278.9399      1000.2171      7845.576       11676.366      19521.942      132880.25      40.502032      40.502032      81.004065          16000 
    250000   3778.0635      906206.07      1582.3945      904354.04      907901.14      906363.03      3032.4912      1683.899       2281.3274      7813.1603      11982.228      19795.388      132614.74      40.475039      40.475039      80.950077          16000 
    251000   3803.1883      896659.27      1588.9764      896476.62      896198.68      897302.51      3978.9786      108.47578     -3506.1391      7865.1191      11788.488      19653.607      132858.77      40.49985       40.49985       80.9997            16000 
    252000   3778.8373      899112.61      1595.5586      897066.05      901523.99      898747.79     -2459.9401      3469.1255      1188.8654      7814.7605      11751.702      19566.463      132811.03      40.494998      40.494998      80.989996          16000 
    253000   3819.4249      903603.44      1602.1397      900891.65      904280.83      905637.84      3156.8247     -950.97797      2521.1912      7898.6969      11874.583      19773.28       132758.99      40.489708      40.489708      80.979416          16000 
    254000   3786.4059      900858.73      1608.7219      903151.8       900714.98      898709.4       7227.0819     -3039.6685      570.6357       7830.4126      11806.621      19637.033      132771.51      40.490981      40.490981      80.981963          16000 
    255000   3791.1252      901198.91      1615.3031      902421.2       900847.61      900327.91      639.0396      -3112.4906      113.05001      7840.1723      11825.317      19665.49       132760.39      40.489851      40.489851      80.979701          16000 
    256000   3787.8858      897527.86      1621.8826      899035.19      895839.35      897709.05      1118.5434      1509.3538      3473.1346      7833.4731      11804.546      19638.019      132817.63      40.495669      40.495669      80.991337          16000 
    257000   3782.3606      905067.93      1628.4611      907506.97      905009.87      902686.94     -886.61722      1022.9244     -1987.7546      7822.0468      11968.036      19790.083      132629.14      40.476503      40.476503      80.953006          16000 
    258000   3801.2228      891459.54      1635.0399      890552.61      890996.1       892829.9       3020.9627     -507.32958      3522.8962      7861.0544      11641.923      19502.977      132994.61      40.513647      40.513647      81.027295          16000 
    259000   3841.3455      908704.17      1641.6179      910150.35      907309.96      908652.19      875.79208     -953.5535       6391.2494      7944.0295      12066.089      20010.118      132605.55      40.474103      40.474103      80.948206          16000 
    260000   3775.0984      896204.11      1648.1975      896524.93      895002.88      897084.52     -1312.1827      3458.7158     -3050.3587      7807.0283      11763.136      19570.165      132859.25      40.499899      40.499899      80.999797          16000 
    261000   3805.0618      901125.76      1654.7765      901062.91      900282.02      902032.34      186.7386      -201.82843     -2786.3519      7868.9936      11901.906      19770.9        132744.82      40.488268      40.488268      80.976535          16000 
    262000   3767.0681      899986.59      1661.3534      902740.53      897862.18      899357.07     -4669.5522     -1932.158      -704.38878      7790.4213      11807.823      19598.244      132738.66      40.487642      40.487642      80.975284          16000 
    263000   3781.4899      899557.65      1667.9321      902222.02      897583.41      898867.52      643.7029       2992.3131     -2782.1666      7820.246       11878.631      19698.877      132800.5       40.493928      40.493928      80.987856          16000 
    264000   3793.8774      899839.12      1674.5115      899231.32      900734.68      899551.36     -2479.8635      2554.2364      2516.7127      7845.8639      11931.937      19777.801      132770.64      40.490892      40.490892      80.981784          16000 
    265000   3759.4087      900520.75      1681.0899      903340.29      896987.55      901234.41     -4235.7955     -3094.6955      922.16414      7774.5815      11923.685      19698.267      132745.69      40.488357      40.488357      80.976713          16000 
    266000   3794.9095      895478.48      1687.6721      897110.19      893615.25      895710.01      5403.7556     -389.13609     -782.18079      7847.9983      11807.97       19655.968      132832.79      40.497209      40.497209      80.994419          16000 
    267000   3778.9496      904832.38      1694.2512      907171.38      904774         902551.77      2790.4265     -423.12396     -4237.8886      7814.9928      11948.972      19763.964      132663.64      40.480013      40.480013      80.960026          16000 
    268000   3792.2143      892083.27      1700.8313      889263.32      894206.71      892779.77     -3937.5147      7.4277208      6425.2809      7842.4245      11837.05       19679.475      133003.31      40.514531      40.514531      81.029063          16000 
    269000   3777.1473      908543         1707.4116      908921.1       905931.34      910776.56     -1090.9274      1926.5647      5039.0885      7811.2655      11908.197      19719.463      132516.87      40.465079      40.465079      80.930159          16000 
    270000   3778.3959      891693.96      1713.9907      889301.51      891326.22      894454.17     -2061.0754      4457.6219      3932.5256      7813.8476      11777.757      19591.604      132980.08      40.512173      40.512173      81.024345          16000 
    271000   3803.2073      899030.93      1720.571       899329.66      897606.13      900157.02      2152.9633      1993.8063     -3277.0678      7865.1585      11840.381      19705.539      132723.58      40.486108      40.486108      80.972216          16000 
    272000   3816.0935      896591.43      1727.1496      893098.44      898534.48      898141.38     -3279.1223      3657.9111      1714.5163      7891.8075      11896.82       19788.628      132849.36      40.498893      40.498893      80.997786          16000 
    273000   3799.6716      901486.68      1733.7285      898912.24      904017.89      901529.92     -1220.0471     -6247.916       2290.8091      7857.8465      11826.193      19684.04       132774.48      40.491283      40.491283      80.982567          16000 
    274000   3758.5345      901222.9       1740.3141      903064.66      899530.4       901073.63      3487.3496      3877.3107     -1278.0161      7772.7736      11810.794      19583.567      132682         40.48188       40.48188       80.963759          16000 
    275000   3787.783       892801.22      1746.8921      892622.17      891839.09      893942.4       2761.836      -1086.5746     -1980.9125      7833.2604      11746.255      19579.515      132958.02      40.509932      40.509932      81.019864          16000 
    276000   3790.5995      905925.51      1753.4727      906653.63      907108.69      904014.23     -6415.7611     -3842.6887     -2745.8544      7839.0851      11910.601      19749.686      132604.07      40.473953      40.473953      80.947906          16000 
    277000   3796.1361      896726.74      1760.053       896326.92      898851.35      895001.95      1270.7246      2737.2914      7842.6089      7850.535       11746.408      19596.943      132864.38      40.50042       40.50042       81.00084           16000 
    278000   3804.4011      904071.04      1766.6316      906902.23      902589.42      902721.47     -2171.9365      2089.4675     -1152.8471      7867.6272      11890.087      19757.714      132681.01      40.481779      40.481779      80.963558          16000 
    279000   3795.0427      899756.05      1773.2117      899128.09      900581.6       899558.46      2789.4922     -1213.8601     -1235.2021      7848.2738      11829.759      19678.033      132798.47      40.493722      40.493722      80.987443          16000 
    280000   3799.7229      897267.79      1779.7928      898539.49      895937.07      897326.8       4265.5517      2122.3582      2128.1134      7857.9526      11790.431      19648.384      132838.33      40.497773      40.497773      80.995545          16000 
    281000   3806.3574      908762.46      1786.3713      911869.61      907809.11      906608.64     -3439.193       254.93143      396.72512      7871.673       11941.436      19813.109      132512.45      40.464629      40.464629      80.929258          16000 
    282000   3782.3454      893981.92      1792.9491      893875.52      893340.26      894729.99     -1524.4466      1975.9833     -2056.7765      7822.0152      11765.029      19587.044      132907.67      40.504818      40.504818      81.009635          16000 
    283000   3851.8959      902536.07      1799.5261      902998.31      901752.93      902856.96      1512.587      -1490.5589     -6811.3497      7965.8481      11933.408      19899.256      132723.92      40.486143      40.486143      80.972286          16000 
    284000   3853.022       894680.13      1806.1022      892005         895013.88      897021.53      213.6983      -1474.5642      2135.7704      7968.177       11706.224      19674.401      132897.78      40.503813      40.503813      81.007626          16000 
    285000   3818.4488      904999.71      1812.6768      903312.52      906175.8       905510.81     -1424.6859      1666.9665     -4488.9885      7896.6783      11880.888      19777.566      132711.22      40.484851      40.484851      80.969703          16000 
[...]
   3930000   4498.7094      898732.77      6794.1752      889618.95      890813.29      915766.09     -48856.114     -5903.2381     -1837.4871      9303.4798      24101.387      33404.867      121060.26      39.511158      39.511158      77.546478          16000 
   3931000   4475.3508      896646.29      6801.3912      888496.52      884810.33      916632.02     -41273.605     -753.11554      2438.2753      9255.1734      24056.546      33311.719      121225.8       39.529159      39.529159      77.581808          16000 
   3932000   4505.7465      902246.21      6808.6082      888165.83      897549.34      921023.46     -43452.696     -414.21181     -4080.6845      9318.0328      24075.212      33393.245      121079.48      39.513249      39.513249      77.550581          16000 
   3933000   4489.808       902366.07      6815.8228      896246.89      893280.89      917570.43     -41699.097      1041.6588     -2666.7754      9285.0714      24143.352      33428.424      121016.25      39.50637       39.50637       77.53708           16000 
   3934000   4491.6293      903972.85      6823.0411      894788.93      889645.15      927484.48     -46849.714      1675.1201     -4242.9139      9288.8379      24090.446      33379.284      121102.74      39.515779      39.515779      77.555547          16000 
   3935000   4482.0974      894129.07      6830.2546      885554.82      886681.43      910150.98     -39915.58       2091.3041     -3149.3253      9269.1257      24064.133      33333.259      121184.93      39.524716      39.524716      77.573088          16000 
   3936000   4501.0006      896015.36      6837.4707      885425.99      888782.95      913837.15     -45595.019      5350.6648      10803.171      9308.2181      24011.423      33319.641      121208.39      39.527267      39.527267      77.578095          16000 
   3937000   4500.8371      896436.85      6844.6883      889693.58      890872.27      908744.7      -48985.372     -961.10832      1180.3227      9307.88        24023.698      33331.578      121187.2       39.524964      39.524964      77.573573          16000 
   3938000   4520.5706      897816.53      6851.9037      888166.7       889681.27      915601.62     -42420.81      -1296.0012     -583.97653      9348.6894      24018.708      33367.397      121122.15      39.517891      39.517891      77.559692          16000 
   3939000   4488.9844      908413.48      6859.1191      897317.89      899031.17      928891.36     -40344.701      4711.6726      1204.4057      9283.3681      24262.383      33545.751      120804.97      39.483365      39.483365      77.491931          16000 
   3940000   4508.3812      900365.87      6866.34        888187.78      894489.37      918420.45     -46142.032     -1780.5173      374.25721      9323.4815      24016.233      33339.714      121170.48      39.523146      39.523146      77.570005          16000 
   3941000   4518.3606      896820.32      6873.56        888351.05      891082.7       911027.2      -46215.771     -6092.1914      121.30769      9344.1191      23993.811      33337.93       121173.77      39.523504      39.523504      77.570708          16000 
   3942000   4457.6123      898294.28      6880.7775      890530.81      891196.04      913155.98     -45957.372      2629.4167     -4760.5886      9218.4896      24141.628      33360.117      121133.75      39.519151      39.519151      77.562166          16000 
   3943000   4498.3924      899198.86      6887.9948      891142.13      889142.57      917311.87     -44735.663     -120.33586     -222.88343      9302.8242      24055.447      33358.271      121135.87      39.519382      39.519382      77.562619          16000 
   3944000   4503.7247      904071.01      6895.2151      895340.07      895682.93      921190.02     -41159.839      2948.989       4497.2071      9313.8516      24166.335      33480.186      120920.53      39.495951      39.495951      77.516631          16000 
   3945000   4556.5081      903873.64      6902.4302      897013.58      898665.87      915941.47     -42810.159      1488.0918      450.67253      9423.0095      24084.41       33507.42       120871.36      39.490597      39.490597      77.506123          16000 
   3946000   4502.4141      902670.61      6909.6462      895745.34      894836.42      917430.08     -45487.664     -600.40091      1060.623       9311.1412      24134.987      33446.128      120977.73      39.502178      39.502178      77.528852          16000 
   3947000   4477.4289      901643.61      6916.8626      898610.42      891346.96      914973.46     -46237.835      2113.0571      6457.9969      9259.471       24157.914      33417.385      121027.36      39.507579      39.507579      77.539453          16000 
   3948000   4485.9394      900726.6       6924.0794      894618.92      890368.86      917192.01     -41443.476     -3199.5014     -1.1668284      9277.071       24106.14       33383.211      121087.73      39.514146      39.514146      77.552343          16000 
   3949000   4504.0597      901464.58      6931.2977      902121.23      885741.22      916531.28     -46627.423      280.15195     -3073.4669      9314.5444      24119.761      33434.305      120996.06      39.504172      39.504172      77.532768          16000 
   3950000   4493.629       902377.82      6938.515       893388.95      893352.61      920391.9      -43183.567      296.64421      2207.1622      9292.9732      24148.658      33441.631      120982.43      39.502689      39.502689      77.529856          16000 
   3951000   4456.1797      894453.83      6945.7336      885230.55      880917.67      917213.26     -46704.17       2887.4809     -4929.6532      9215.527       24072.026      33287.553      121254.65      39.532295      39.532295      77.587963          16000 
   3952000   4478.4274      905820.74      6952.9526      898934.78      896607.09      921920.35     -43552.661      1680.6678     -29.359895      9261.5359      24136.758      33398.294      121055.91      39.510685      39.510685      77.54555           16000 
   3953000   4493.6904      903082.32      6960.171       901197.85      892086.86      915962.26     -42609.027      3568.3406     -278.4691       9293.1002      24142.426      33435.527      120986.88      39.503173      39.503173      77.530806          16000 
   3954000   4492.5932      893896.59      6967.3882      887802.99      886751.27      907135.52     -41582.505     -944.71729     -4885.7934      9290.8313      24028.681      33319.512      121193.47      39.525645      39.525645      77.574911          16000 
   3955000   4476.626       894962.88      6974.6042      884653.59      887667.4       912567.66     -43279.158      3126.2769      4492.2227      9257.8107      24034.404      33292.215      121242.36      39.53096       39.53096       77.585342          16000 
   3956000   4442.8376      896610.4       6981.8238      883724.2       889209.52      916897.48     -45933.871      2146.8723     -7354.968       9187.9351      24137.601      33325.536      121181.56      39.52435       39.52435       77.57237           16000 
   3957000   4483.735       899944.38      6989.0419      890653.12      893574.55      915605.47     -47521.099     -3036.6952     -3828.5364      9272.5121      24155.266      33427.778      120998.38      39.504425      39.504425      77.533264          16000 
   3958000   4542.6617      903246.19      6996.2602      895327.08      895848.66      918562.83     -45067.987      6726.5502      1135.7364      9394.3745      24056.221      33450.596      120956.62      39.49988       39.49988       77.524344          16000 
   3959000   4461.2431      905221.15      7003.4796      892642.12      900022.26      922999.08     -40053.126      1721.0713     -73.785727      9225.9982      24190.476      33416.475      121016.98      39.506449      39.506449      77.537235          16000 
   3960000   4461.4383      894312.61      7010.6981      885945.82      885300.18      911691.82     -40928.338     -8922.0411     -5031.2146      9226.402       24077.076      33303.478      121217.55      39.528263      39.528263      77.580048          16000 
   3961000   4488.2479      891231.13      7017.9136      886544.8       882617.21      904531.39     -43631.754      3744.8458     -1689.9675      9281.8451      23988.557      33270.402      121276.52      39.534671      39.534671      77.592627          16000 
   3962000   4495.32        899579.07      7025.1295      895368.1       889019.94      914349.17     -45481.276      7254.7743      4650.8547      9296.4703      24051.97       33348.44       121137.67      39.519578      39.519578      77.563003          16000 
   3963000   4498.5583      908576.2       7032.3448      904092.22      899598.18      922038.21     -45151.798     -4447.3417      3543.2967      9303.1672      24173.116      33476.284      120910.72      39.494883      39.494883      77.514535          16000 
   3964000   4493.4942      901080.36      7039.5602      897922.21      891909.61      913409.26     -47957.439      8.4569956     -2275.0529      9292.6946      24173.17       33465.865      120926.03      39.49655       39.49655       77.517807          16000 
   3965000   4462.3706      906528.73      7046.7773      901768.14      899217.48      918600.59     -44953.596     -1851.7675      8346.0985      9228.3299      24243.425      33471.755      120914.76      39.495322      39.495322      77.515398          16000 
   3966000   4474.992       892123.84      7053.9936      882148.68      882750.89      911471.97     -45115.995     -2891.7766     -870.55268      9254.4314      24012.731      33267.163      121278.25      39.534859      39.534859      77.592995          16000 
   3967000   4480.2955      892639.12      7061.2105      882193.35      885210.18      910513.83     -43592.964     -6526.4075      2173.5914      9265.3993      23980.146      33245.545      121313.77      39.538719      39.538719      77.600571          16000 
   3968000   4472.4972      902997.02      7068.4274      894391.26      894181.83      920417.99     -45947.135     -1000.5736      2051.4482      9249.2721      24119.057      33368.329      121091.86      39.514596      39.514596      77.553225          16000 
   3969000   4460.6983      905035.8       7075.6433      894341.29      893635.81      927130.29     -41685.554      4445.8417     -3751.5884      9224.8716      24182.058      33406.93       121023.02      39.507107      39.507107      77.538527          16000 
   3970000   4502.6402      898110         7082.858       888387.71      887280.29      918662.01     -46834.713     -2389.9992     -1340.4957      9311.6088      24019.385      33330.994      121156.8       39.521658      39.521658      77.567085          16000 
   3971000   4466.7268      892028.07      7090.0733      886168.36      888506.32      901409.54     -44177.272     -4242.36        3661.5269      9237.3386      24060.402      33297.741      121215.36      39.528025      39.528025      77.579582          16000 
   3972000   4463.7647      909813.34      7097.303       903701         904627.04      921111.99     -45124.125     -2780.5422     -3237.7648      9231.2131      24250.626      33481.839      120885.16      39.492099      39.492099      77.509072          16000 
   3973000   4496.7734      905510.19      7104.5223      896063.57      896718.65      923748.36     -48869.257     -3970.4688     -2554.443       9299.476       24180.744      33480.22       120886.87      39.492286      39.492286      77.509439          16000 
   3974000   4502.4589      906076.63      7111.7385      892179.82      904380.74      921669.32     -41734.785     -1231.7224      2141.1395      9311.2339      24123.345      33434.579      120965.52      39.500849      39.500849      77.526244          16000 
   3975000   4503.9269      897199.84      7118.9533      886535.78      891396.91      913666.83     -48160.049      1994.5586      3216.8071      9314.2697      24024.09       33338.36       121136.7       39.519472      39.519472      77.562796          16000 
   3976000   4473.9233      898529.71      7126.1706      889213.06      892238.64      914137.44     -43027.431      3487.4733      435.50242      9252.2213      24138.015      33390.236      121044.18      39.509409      39.509409      77.543045          16000 
   3977000   4492.7212      903584.45      7133.3878      895403.09      896079.75      919270.5      -43879.08      -8561.2885      1831.9784      9291.0959      24114.562      33405.658      121015.51      39.50629       39.50629       77.536923          16000 
   3978000   4517.0185      909538.67      7140.6059      902452.01      900234.37      925929.61     -47464.738      3727.847       1199.4147      9341.3435      24206.441      33547.785      120762.72      39.478761      39.478761      77.482894          16000 
   3979000   4502.5705      899224.01      7147.8218      893778.32      893065.63      910828.08     -43417.955      3728.504       326.84763      9311.4646      24057.201      33368.666      121079.02      39.513199      39.513199      77.550484          16000 
   3980000   4520.5618      901834.91      7155.04        894759.24      893945.98      916799.51     -46395.008     -7721.4028     -3959.5657      9348.6712      24066.939      33415.61       120995.22      39.504082      39.504082      77.532589          16000 
   3981000   4511.6158      901362.49      7162.2589      891935.58      894588.59      917563.31     -44552.432      894.3114       832.08253      9330.1706      24062.764      33392.934      121035.67      39.508483      39.508483      77.541227          16000 
   3982000   4538.4735      902319.69      7169.4746      897666.65      896387.67      912904.76     -43139.715     -1580.6253      6142.0018      9385.7133      24024.647      33410.36       121004.31      39.505071      39.505071      77.53453           16000 
   3983000   4552.2078      893087.57      7176.6931      885985.78      882339.38      910937.55     -46596.038      6361.9975     -9435.4505      9414.1162      23913.233      33327.349      121151.73      39.521107      39.521107      77.566004          16000 
   3984000   4507.3243      899434.34      7183.9108      893292.66      889896.81      915113.56     -45786.929     -1312.5229      1646.4757      9321.2956      24065.448      33386.744      121046.14      39.509623      39.509623      77.543464          16000 
   3985000   4464.6824      898396.98      7191.1295      891064.1       888043.97      916082.88     -38465.245      1963.0821      8904.9824      9233.1107      24146.299      33379.41       121059.16      39.511038      39.511038      77.546243          16000 
   3986000   4506.3435      906350.99      7198.3486      896210.5       900547.8       922294.66     -42308.95      -1046.9819     -6044.5879      9319.2673      24140.035      33459.303      120917.11      39.495579      39.495579      77.515901          16000 
   3987000   4522.1902      907112.25      7205.5664      893994.84      905379.56      921962.33     -44384.396      190.46348      673.03407      9352.0388      24103.59       33455.629      120922.54      39.49617       39.49617       77.517061          16000 
   3988000   4467.2226      899086.3       7212.7825      893411.2       890388         913459.7      -46802.276      4433.5166      883.12641      9238.3641      24063.693      33302.058      121194.22      39.525727      39.525727      77.575071          16000 
   3989000   4485.2974      897350.24      7220.0021      893527.37      886836.16      911687.2      -46929.468     -2598.9895      718.34333      9275.7433      24015.374      33291.118      121211.89      39.527647      39.527647      77.57884           16000 
   3990000   4494.2477      900529.5       7227.2229      895438.67      887000.43      919149.41     -50295.715     -382.74922     -2149.4299      9294.2527      24061.716      33355.969      121092.75      39.514693      39.514693      77.553415          16000 
   3991000   4503.5365      906238.85      7234.4433      899746.76      898789.78      920180        -48105.078      1943.7975     -274.40048      9313.4624      24128.286      33441.748      120938.3       39.497886      39.497886      77.52043           16000 
   3992000   4483.0585      898176.59      7241.6639      894137.41      891574.37      908817.99     -45425.573      2848.0411     -773.84989      9271.1132      24079.904      33351.017      121098.68      39.515337      39.515337      77.554681          16000 
   3993000   4520.0632      892267.33      7248.8834      885802.23      880606.06      910393.7      -43339.117      1392.5562     -1329.026       9347.6402      23908.059      33255.7        121267.68      39.533711      39.533711      77.590741          16000 
   3994000   4523.5244      903102.54      7256.1058      892379.85      898017.74      918910.02     -47767.721      3628.4834     -4930.5567      9354.7981      24099.126      33453.924      120912.95      39.495126      39.495126      77.515012          16000 
   3995000   4518.6845      901476.9       7263.3253      895355.37      895128.53      913946.8      -42362.577      7622.8753     -204.44113      9344.789       24076.763      33421.552      120968.81      39.501206      39.501206      77.526946          16000 
   3996000   4512.505       896789.69      7270.5449      886669.41      889195.17      914504.48     -46250.772     -3948.6271      2366.4045      9332.0095      23988.742      33320.751      121146.37      39.520524      39.520524      77.564861          16000 
   3997000   4493.873       897429.94      7277.7661      891167.84      890818.25      910303.74     -45185.254      4560.6191      2315.416       9293.4779      24029.09       33322.568      121141.16      39.519957      39.519957      77.563747          16000 
   3998000   4501.9499      897686.74      7284.9865      888853.6       888734.38      915472.24     -47007.931     -3273.4306     -2983.8068      9310.1812      24013.045      33323.226      121139.26      39.519751      39.519751      77.563343          16000 
   3999000   4504.1261      903991.62      7292.205       898026.11      895721.08      918227.68     -42602.965      1660.6309     -5111.1379      9314.6816      24111.923      33426.605      120954.49      39.499648      39.499648      77.523887          16000 
   4000000   4517.5038      898993.49      7299.4297      888888.83      893833.43      914258.21     -45102.7       -4282.8111     -3241.5845      9342.3472      24034.989      33377.336      121041.07      39.509071      39.509071      77.542382          16000 
Loop time of 7299.43 on 8 procs for 1000000 steps with 16000 atoms

Performance: 5.918 ns/day, 4.055 hours/ns, 136.997 timesteps/s
58.2% CPU use with 1 MPI tasks x 8 OpenMP threads

MPI task timing breakdown:
Section |  min time  |  avg time  |  max time  |%varavg| %total
---------------------------------------------------------------
Pair    | 7015.1     | 7015.1     | 7015.1     |   0.0 | 96.11
Neigh   | 14.032     | 14.032     | 14.032     |   0.0 |  0.19
Comm    | 41.166     | 41.166     | 41.166     |   0.0 |  0.56
Output  | 1.3888     | 1.3888     | 1.3888     |   0.0 |  0.02
Modify  | 203.13     | 203.13     | 203.13     |   0.0 |  2.78
Other   |            | 24.59      |            |       |  0.34

Nlocal:          16000 ave       16000 max       16000 min
Histogram: 1 0 0 0 0 0 0 0 0 0
Nghost:          15545 ave       15545 max       15545 min
Histogram: 1 0 0 0 0 0 0 0 0 0
Neighs:              0 ave           0 max           0 min
Histogram: 1 0 0 0 0 0 0 0 0 0
FullNghs:  1.89249e+06 ave 1.89249e+06 max 1.89249e+06 min
Histogram: 1 0 0 0 0 0 0 0 0 0

Total # of neighbors = 1892486
Ave neighs/atom = 118.28038
Neighbor list builds = 34303
Dangerous builds = 0
Total wall time: 7:57:43
