
atom_style atomic
units metal
boundary p p p
#atom_modify sort 0 0.0
newton on

read_data data.lammps
Reading data file ...
  triclinic box = (0 0 0) to (4.3790145 4.3790145 4.3790145) with tilt (-0 0 0)
  1 by 1 by 1 MPI processor grid
  reading atoms ...
  8 atoms
  read_data CPU = 0.003 seconds
replicate 10 10 20
Replicating atoms ...
  triclinic box = (0 0 0) to (43.790145 43.790145 87.58029) with tilt (-0 0 0)
  1 by 1 by 1 MPI processor grid
  16000 atoms
  replicate CPU = 0.017 seconds

### interactions

pair_style flare
pair_coeff * * lmp.flare
Reading potential file lmp.flare with DATE: Thu

# compute unc all flare/std/atom L_inv_lmp.flare sparse_desc_lmp.flare
# compute MaxUnc all reduce max c_unc

mass 1 12.011000
mass 2 28.085000

thermo_style custom step temp press cpu pxx pyy pzz pxy pxz pyz ke pe etotal vol lx ly lz atoms    #c_MaxUnc
thermo 1000
timestep 0.0005
restart 100000 restart_*.dat

#################### Equilibrate at P and T_es ##############################
velocity all create $T 41928459 rot yes dist gaussian
velocity all create 3400 41928459 rot yes dist gaussian
fix mom all momentum 1000 linear 1 1 1 angular

fix 1 all npt temp $T $T $(100.0*dt) iso $P $P $(1000.0*dt)
fix 1 all npt temp 3400 $T $(100.0*dt) iso $P $P $(1000.0*dt)
fix 1 all npt temp 3400 3400 $(100.0*dt) iso $P $P $(1000.0*dt)
fix 1 all npt temp 3400 3400 0.050000000000000002776 iso $P $P $(1000.0*dt)
fix 1 all npt temp 3400 3400 0.050000000000000002776 iso 900000 $P $(1000.0*dt)
fix 1 all npt temp 3400 3400 0.050000000000000002776 iso 900000 900000 $(1000.0*dt)
fix 1 all npt temp 3400 3400 0.050000000000000002776 iso 900000 900000 0.5
dump 1 all custom 1000 1equil.bin id type x y z vx vy vz
run   10000 # report performance
Neighbor list info ...
  update every 1 steps, delay 10 steps, check yes
  max neighbors/atom: 2000, page size: 100000
  master list distance cutoff = 6
  ghost atom cutoff = 6
  binsize = 6, bins = 8 8 15
  1 neighbor lists, perpetual/occasional/extra = 1 0 0
  (1) pair flare/kk, perpetual
      attributes: full, newton on, kokkos_device
      pair build: full/bin/kk/device
      stencil: full/bin/3d
      bin: kk/device
Per MPI rank memory allocation (min/avg/max) = 15.9 | 15.9 | 15.9 Mbytes
   Step          Temp          Press           CPU            Pxx            Pyy            Pzz            Pxy            Pxz            Pyz           KinEng         PotEng         TotEng         Volume           Lx             Ly             Lz          Atoms   
         0   3400           63428.998      0              63090.392      63583.36       63613.243     -471.7975       212.49693     -533.43026      7031.3124     -4109.4047      2921.9077      167941.93      43.790145      43.790145      87.58029           16000 
      1000   3490.5335      899775.36      6.6002147      900090.16      897909.4       901326.52      1375.6833     -1701.1692      4082.138       7218.5387      10957.126      18175.665      132791.49      40.493012      40.493012      80.986025          16000 
      2000   3391.3102      901068.72      13.218531      900546.88      901299.04      901360.24     -2265.0269      2610.1288      7210.4363      7013.3415      10685.434      17698.775      132546.12      40.468055      40.468055      80.936111          16000 
      3000   3415.0943      900766.76      19.833773      900296.14      898270.64      903733.52     -253.7588       1631.3526      688.34713      7062.528       10977.068      18039.596      132577.12      40.471211      40.471211      80.942421          16000 
      4000   3369.0645      901065.57      26.44595       902795.94      900005.2       900395.56     -1095.2661      3732.9889      2759.802       6967.3367      10840.912      17808.249      132488.35      40.462176      40.462176      80.924351          16000 
      5000   3442.4358      898619.68      33.055383      897432.84      900041.44      898384.75      2017.634       3097.1653      4072.8836      7119.0711      10912.955      18032.026      132517.48      40.465141      40.465141      80.930282          16000 
      6000   3403.2945      900170.54      39.664087      899753.83      900598.85      900158.95     -1425.1343      1160.5264      2418.36        7038.1256      10848.588      17886.714      132494.11      40.462762      40.462762      80.925524          16000 
      7000   3387.0688      899543.98      46.273765      899866.07      898405.24      900360.62     -1001.6211      2453.0142      1439.8326      7004.5703      10993.316      17997.886      132514.08      40.464795      40.464795      80.92959           16000 
      8000   3399.6359      901798.9       52.883404      902063.96      901649.46      901683.3      -3806.9338     -3106.2301     -1163.8806      7030.5594      10908.705      17939.265      132441.14      40.457369      40.457369      80.914737          16000 
      9000   3394.3493      898611.5       59.498928      898420.59      898107.68      899306.24      2077.4865     -798.02748     -486.49098      7019.6266      10946.944      17966.57       132473.38      40.460652      40.460652      80.921304          16000 
     10000   3395.3854      899385.82      66.117691      898116.27      900944.8       899096.37     -5929.6143      278.15502     -4058.9247      7021.7692      10941.301      17963.07       132450.38      40.45831       40.45831       80.916619          16000 
Loop time of 66.1177 on 8 procs for 10000 steps with 16000 atoms

Performance: 6.534 ns/day, 3.673 hours/ns, 151.245 timesteps/s
61.6% CPU use with 1 MPI tasks x 8 OpenMP threads

MPI task timing breakdown:
Section |  min time  |  avg time  |  max time  |%varavg| %total
---------------------------------------------------------------
Pair    | 63.066     | 63.066     | 63.066     |   0.0 | 95.39
Neigh   | 0.090567   | 0.090567   | 0.090567   |   0.0 |  0.14
Comm    | 0.34387    | 0.34387    | 0.34387    |   0.0 |  0.52
Output  | 0.012161   | 0.012161   | 0.012161   |   0.0 |  0.02
Modify  | 2.3279     | 2.3279     | 2.3279     |   0.0 |  3.52
Other   |            | 0.2768     |            |       |  0.42

Nlocal:          16000 ave       16000 max       16000 min
Histogram: 1 0 0 0 0 0 0 0 0 0
Nghost:          14587 ave       14587 max       14587 min
Histogram: 1 0 0 0 0 0 0 0 0 0
Neighs:              0 ave           0 max           0 min
Histogram: 1 0 0 0 0 0 0 0 0 0
FullNghs:  1.75958e+06 ave 1.75958e+06 max 1.75958e+06 min
Histogram: 1 0 0 0 0 0 0 0 0 0

Total # of neighbors = 1759582
Ave neighs/atom = 109.97388
Neighbor list builds = 215
Dangerous builds = 0
run  990000
Per MPI rank memory allocation (min/avg/max) = 16.45 | 16.45 | 16.45 Mbytes
   Step          Temp          Press           CPU            Pxx            Pyy            Pzz            Pxy            Pxz            Pyz           KinEng         PotEng         TotEng         Volume           Lx             Ly             Lz          Atoms   
     10000   3395.3854      899385.82      0              898116.27      900944.8       899096.37     -5929.6143      278.15502     -4058.9247      7021.7692      10941.301      17963.07       132450.38      40.45831       40.45831       80.916619          16000 
     11000   3408.2799      905429.57      6.6183334      907454.98      903185.46      905648.28     -3137.8211     -2903.4211     -1462.6535      7048.4355      11016.329      18064.764      132321.39      40.445172      40.445172      80.890344          16000 
     12000   3379.2973      887680.33      13.23819       886170.39      891266.46      885604.15      2884.163      -4966.2695      2821.8077      6988.4986      10808.625      17797.123      132765.14      40.490334      40.490334      80.980667          16000 
     13000   3413.3727      905626.31      19.858344      907194.32      904454.45      905230.17      4454.8302      3851.0434     -779.27044      7058.9677      11060.205      18119.173      132294.96      40.442478      40.442478      80.884957          16000 
     14000   3360.8794      898404.12      26.479598      898531.75      898453.74      898226.87      1868.6356     -1833.2692     -715.64546      6950.4096      10889.339      17839.749      132462.93      40.459588      40.459588      80.919176          16000 
     15000   3405.1533      898769.47      33.100063      899977.72      900077.18      896253.51      277.91202      1240.4824     -3343.5203      7041.9697      10976.335      18018.304      132487.3       40.462069      40.462069      80.924138          16000 
     16000   3415.7011      901851.44      39.719951      903162.3       900688.32      901703.7       2284.367      -22.666197      2888.1783      7063.7828      10863.996      17927.779      132445.82      40.457846      40.457846      80.915691          16000 
     17000   3428.2091      900645.2       46.338467      901307.09      899038.28      901590.22      875.12548     -2014.8055     -5783.7534      7089.6498      10897.601      17987.251      132466.72      40.459973      40.459973      80.919947          16000 
     18000   3415.6343      893706.79      52.955532      893960.94      892762.94      894396.48      1929.3923     -1952.4387     -1345.6103      7063.6447      10894.537      17958.182      132623.72      40.475952      40.475952      80.951904          16000 
     19000   3421.3013      908009.16      59.568921      910325.3       907086.79      906615.39     -2695.6313     -2720.5974      832.98693      7075.3642      11037.284      18112.648      132282.55      40.441214      40.441214      80.882428          16000 
     20000   3375.4099      892824.02      66.187051      892155.7       892159.81      894156.54     -2963.0961      1878.2061      1755.3967      6980.4594      10829.415      17809.874      132669.1       40.480568      40.480568      80.961136          16000 
     21000   3424.223       902051.56      72.802981      902886.36      899804.78      903463.53      2412.7952     -1490.2758      3413.5347      7081.4064      11029.762      18111.169      132385.85      40.451739      40.451739      80.903477          16000 
     22000   3351.9858      897456.8       79.422061      897185.75      898230.03      896954.6      -303.16381      1872.3479     -2925.9874      6932.0176      10996.093      17928.111      132480.57      40.461384      40.461384      80.922768          16000 
     23000   3392.5264      898966.63      86.040838      899884.02      899042.03      897973.83      1527.5815     -607.64465     -5535.8586      7015.8567      11036.125      18051.982      132509.34      40.464313      40.464313      80.928626          16000 
     24000   3401.9674      901980.03      92.654586      900568.1       903700.85      901671.13      839.77093      3270.4889     -3086.4963      7035.3811      10967.253      18002.634      132393.73      40.452541      40.452541      80.905083          16000 
     25000   3411.1223      895515.44      99.268323      896670.23      896116.21      893759.89     -2625.9479      498.48347     -160.43728      7054.3136      10932.769      17987.083      132588.88      40.472408      40.472408      80.944815          16000 
     26000   3415.086       902842.5       105.8836       903265.69      901926.72      903335.11      4011.4186     -4083.3375     -457.03533      7062.5108      11025.204      18087.715      132341.36      40.447207      40.447207      80.894413          16000 
     27000   3366.0083      895801.98      112.50238      897316.3       893868.55      896221.1       2996.2846     -867.88826      2335.2582      6961.0165      10912.342      17873.359      132563.58      40.469833      40.469833      80.939665          16000 
     28000   3392.7813      903816.31      119.12147      909211.64      899275.38      902961.91     -4219.9368      70.670438      2436.4319      7016.384       11000.229      18016.613      132357.58      40.448859      40.448859      80.897718          16000 
     29000   3385.6662      898221.72      125.74145      897719.63      901266         895679.53      2735.0957      3366.3208     -1839.962       7001.6696      11000.524      18002.193      132475.92      40.460911      40.460911      80.921821          16000 
     30000   3372.998       899264.07      132.35495      899098.31      898070.32      900623.58     -3183.1995      195.52742     -2683.8974      6975.4714      10962.468      17937.94       132463.99      40.459696      40.459696      80.919392          16000 
     31000   3408.3179      900939.34      138.97163      900357.25      902671.52      899789.27      3158.6461      2849.3957     -3065.0811      7048.5141      11022.603      18071.117      132419.4       40.455156      40.455156      80.910311          16000 
     32000   3364.0175      899071.78      145.59085      898294.61      901227.03      897693.7      -2164.7852      1116.5189     -3512.829       6956.8993      10883.738      17840.638      132489.58      40.462301      40.462301      80.924603          16000 
     33000   3429.1256      904274.86      152.20607      902205.55      904898.93      905720.09      1681.0836      2471.2482      3921.9086      7091.5452      10976.849      18068.394      132344.85      40.447562      40.447562      80.895125          16000 
     34000   3359.1652      892722.59      158.82303      892820.71      892122.64      893224.43     -4773.0088      198.34703      3164.5642      6946.8646      10765.847      17712.712      132543.98      40.467838      40.467838      80.935676          16000 
     35000   3398.041       904096.48      165.4384       903897.64      903046.14      905345.67     -3986.7574     -5805.4661      867.1074       7027.2611      11032.065      18059.326      132311.35      40.444149      40.444149      80.888298          16000 
     36000   3412.144       895542.77      172.05294      893123.63      897727.42      895777.26      514.44807      1491.5436      3799.4565      7056.4266      10933.279      17989.706      132553.66      40.468823      40.468823      80.937646          16000 
     37000   3400.5293      900335.45      178.66794      898782.47      898607.53      903616.34     -237.44524     -1626.9775      763.84129      7032.4071      10915.035      17947.443      132437.04      40.456952      40.456952      80.913904          16000 
     38000   3456.2819      903589.92      185.28744      904815.35      901730.37      904224.03      909.88439      1176.2583     -2555.3121      7147.7053      10991.152      18138.857      132389.66      40.452127      40.452127      80.904253          16000 
     39000   3413.9755      900170.9       191.90238      901675.09      899147.21      899690.39     -3317.7113      5994.7471      1157.9162      7060.2142      10892.72       17952.935      132446.83      40.457948      40.457948      80.915896          16000 
     40000   3416.4373      901045.83      198.51943      901879.82      901757.58      899500.1       506.47205      3578.1102     -6512.1935      7065.3053      10924.891      17990.196      132434.47      40.45669       40.45669       80.91338           16000 
     41000   3413.0821      895531.88      205.14028      896381.5       896147.58      894066.55      910.90158     -3136.16       -3191.4839      7058.3666      10862.599      17920.966      132536.18      40.467044      40.467044      80.934088          16000 
     42000   3421.0479      908607.11      211.75906      907974.81      905910.15      911936.38     -2594.4907      2644.4488     -1680.9066      7074.8401      10948.412      18023.252      132216.24      40.434456      40.434456      80.868912          16000 
     43000   3415.832       891824.4       218.38014      891948.76      890345.35      893179.08      780.06729      470.35613      1242.4148      7064.0535      10816.387      17880.441      132676.8       40.481351      40.481351      80.962701          16000 
     44000   3404.8524      904271.75      225.00284      903712.68      903625.42      905477.16      1686.1312      3033.3495     -2610.2561      7041.3474      10924.859      17966.207      132326.72      40.445715      40.445715      80.89143           16000 
     45000   3385.865       900001.96      231.61686      898691.18      900398.62      900916.09     -2453.1099      262.13935     -2705.7073      7002.0807      10985.415      17987.495      132462.59      40.459553      40.459553      80.919106          16000 
     46000   3382.8477      902391.86      238.2339       903716.43      903003.99      900455.16     -1677.6107      1942.0952     -3961.5557      6995.841       10972.903      17968.744      132343.49      40.447424      40.447424      80.894847          16000 
     47000   3361.3473      897987.3       244.85054      901132.26      896612.29      896217.35     -2487.1645     -618.33708     -1373.0348      6951.3774      11017.303      17968.681      132466.61      40.459962      40.459962      80.919924          16000 
     48000   3402.7519      896854.86      251.46161      896084.26      896588.25      897892.06      4683.214      -3181.467       959.21228      7037.0034      10921.312      17958.316      132499.14      40.463274      40.463274      80.926548          16000 
     49000   3381.7246      906340.51      258.07805      905873.1       906350.97      906797.44     -2361.3971     -2269.8276      6325.9028      6993.5183      11002.904      17996.423      132249.4       40.437836      40.437836      80.875672          16000 
     50000   3389.2975      892071.18      264.69988      889242.88      891212.65      895758.01      2530.6973     -5925.5581     -1762.3705      7009.1793      10893.016      17902.195      132668.41      40.480497      40.480497      80.960995          16000 
     51000   3354.9455      901256.53      271.32214      900901.43      900001.97      902866.19      3054.5005     -4460.2118     -3701.3059      6938.1382      11077.648      18015.786      132393.75      40.452543      40.452543      80.905086          16000 
     52000   3380.0605      899707.49      277.94209      901279.57      895687.98      902154.91      1011.6352      3026.8595      574.58205      6990.0769      10871.986      17862.063      132388.47      40.452006      40.452006      80.904011          16000 
     53000   3383.9204      898227.1       284.56131      896946.83      896667.32      901067.15     -1496.2021      688.56617     -5008.767       6998.0592      10952.919      17950.978      132530.68      40.466484      40.466484      80.932968          16000 
     54000   3408.6632      905169.3       291.18169      904525.88      904484.86      906497.15      1757.3242     -273.35332      752.14087      7049.2282      11052.787      18102.015      132332.07      40.446261      40.446261      80.892521          16000 
     55000   3430.2248      894254.93      297.80242      896051.76      891880.48      894832.56      1915.3444      3671.3197     -3806.4671      7093.8183      10821.741      17915.56       132637         40.477303      40.477303      80.954606          16000 
     56000   3378.1282      904795.1       304.42098      904618.03      904147.86      905619.41      5972.6225     -2115.0124      2929.12        6986.0807      11087.952      18074.033      132301.34      40.443129      40.443129      80.886258          16000 
     57000   3399.2601      898740.36      311.04175      896621.98      899584.16      900014.93     -3076.815       1034.9005     -2325.8977      7029.7823      10927.381      17957.163      132502.85      40.463651      40.463651      80.927303          16000 
     58000   3394.3195      899233.12      317.66319      900483.87      898073.47      899142.01      2797.9197     -2003.1094      2597.8457      7019.565       10943.144      17962.709      132484.56      40.46179       40.46179       80.92358           16000 
     59000   3394.9375      901555.34      324.28275      900915.76      901875.37      901874.88     -4150.3026      652.09902      1953.6173      7020.8429      10947.995      17968.838      132395.77      40.452749      40.452749      80.905497          16000 
     60000   3415.7021      896307.83      330.90261      896832.57      895290.66      896800.25     -436.79964      3034.2355      6819.1186      7063.7849      10951.345      18015.129      132593.4       40.472867      40.472867      80.945735          16000 
     61000   3383.6061      903145.1       337.52409      902723.22      905481.13      901230.93      1743.6912      421.27821     -488.70616      6997.4093      11002.36       17999.769      132370.98      40.450224      40.450224      80.900448          16000 
     62000   3381.523       899623.24      344.14538      897738.89      902085.1       899045.72      275.09254     -569.30477     -1708.0463      6993.1014      10909.741      17902.842      132459.23      40.459211      40.459211      80.918423          16000 
     63000   3395.3158      896996.97      350.76634      895564.55      897796.97      897629.38      1655.1987      277.14864     -2651.6566      7021.6252      10894.83       17916.456      132560.03      40.469472      40.469472      80.938943          16000 
     64000   3405.4845      904988.36      357.3884       906694.72      904741.75      903528.61      604.14133      2670.7559      5006.4866      7042.6544      10971.439      18014.093      132283.2       40.441281      40.441281      80.882562          16000 
     65000   3405.333       894241.07      364.01124      891876.39      896865.18      893981.63      2990.7463      1962.3313      2714.0941      7042.3412      10861.239      17903.58       132562.86      40.469759      40.469759      80.939518          16000 
     66000   3435.1523      903228.65      370.63284      903738.02      902203.36      903744.57      551.55532     -2468.3149     -478.33488      7104.0085      10953.938      18057.947      132360.25      40.449131      40.449131      80.898263          16000 
     67000   3386.0172      901720.6       377.25301      902009.9       903143.27      900008.61     -1972.2914      1531.2721     -1586.2401      7002.3954      10969.002      17971.397      132378.59      40.450999      40.450999      80.901998          16000 
     68000   3445.9196      896815.57      383.8748       895863.94      898553.07      896029.7      -1906.2102     -3250.1421      1053.477       7126.2757      10905.332      18031.608      132564.6       40.469937      40.469937      80.939874          16000 
     69000   3393.3741      906029.21      390.49525      906098.94      906371.08      905617.61     -3964.5445     -2028.2682     -1646.4818      7017.6099      11032.717      18050.327      132292.85      40.442263      40.442263      80.884527          16000 
     70000   3405.7266      894483.24      397.11522      894977.04      893888.98      894583.72      2600.0228     -419.68849      3471.8139      7043.1552      10831.097      17874.253      132613.46      40.474908      40.474908      80.949817          16000 
     71000   3389.2682      903964.27      403.73548      903314.87      907059.81      901518.13      2435.6046      2900.5714      2057.0808      7009.1187      11033.37       18042.489      132317.85      40.444811      40.444811      80.889622          16000 
     72000   3389.5669      895404.01      410.35708      893912.92      896730.04      895569.05      2102.5149      1601.3685     -796.17609      7009.7365      10876.93       17886.666      132545.01      40.467943      40.467943      80.935885          16000 
     73000   3421.3456      903716.37      416.98074      904007.95      905828.59      901312.55     -4499.1267     -212.89024     -375.27958      7075.4557      10984.44       18059.895      132376.97      40.450834      40.450834      80.901668          16000 
     74000   3410.5845      896844.43      423.60071      898394.78      894841.15      897297.37      4519.3639      1275.9864      2301.9183      7053.2014      10904.047      17957.249      132511.17      40.464498      40.464498      80.928997          16000 
     75000   3404.6863      899742.8       430.22352      899128.32      901061.04      899039.03      2290.3559      7.5009071      2163.735       7041.0039      10944.427      17985.431      132432.82      40.456522      40.456522      80.913045          16000 
     76000   3402.6187      903348.91      436.84546      906939.18      904677.59      898429.96      1033.075      -1307.1291      1448.8926      7036.728       10905.09       17941.818      132339.71      40.447039      40.447039      80.894077          16000 
     77000   3412.2707      891138.48      443.46814      891413.57      889102.52      892899.36     -1537.4073      162.16693     -1458.3611      7056.6886      10875.125      17931.814      132654.89      40.479123      40.479123      80.958245          16000 
     78000   3396.4384      909831.04      450.09048      910098.26      909451.06      909943.8       4769.8356      5441.2497     -2315.512       7023.9468      11068.409      18092.356      132192.47      40.432033      40.432033      80.864065          16000 
     79000   3389.9872      896757.19      456.71684      897410.61      895510.05      897350.92      1369.3841     -204.42231     -4301.0613      7010.6056      10903.02       17913.626      132562.04      40.469676      40.469676      80.939351          16000 
     80000   3359.2927      900372.87      463.34587      899588.68      902737.46      898792.46     -1777.6788     -2047.6983     -2464.2782      6947.1284      10914.204      17861.333      132381.25      40.45127       40.45127       80.90254           16000 
     81000   3407.0247      897715.14      469.98348      898638.79      898815.59      895691.06      936.10014      1021.8504     -3338.0835      7045.8398      10929.724      17975.564      132498.84      40.463244      40.463244      80.926488          16000 
     82000   3385.8563      898759.1       476.62096      896522.07      900649.36      899105.88      2028.9933      2478.8244      633.42642      7002.0628      10998.239      18000.302      132464.09      40.459706      40.459706      80.919411          16000 
     83000   3451.796       900095.03      483.26347      899309.15      901250.8       899725.13      1788.7068      3955.0544     -1087.0929      7138.4281      10906.093      18044.521      132457.39      40.459024      40.459024      80.918048          16000 
     84000   3398.1669      902072.62      489.90738      901261.4       904246.12      900710.33     -795.8767      -1552.4888     -363.50734      7027.5215      10929.488      17957.009      132425.11      40.455737      40.455737      80.911473          16000 
     85000   3410.4635      900697.1       496.55084      900950.72      901393.81      899746.77     -370.07437     -3656.6244     -908.3518       7052.9512      10970.51       18023.461      132446.46      40.45791       40.45791       80.915821          16000 
     86000   3401.9508      895219.3       503.19814      894636.88      895362.66      895658.36     -2642.2678      1473.7954     -1002.5219      7035.3467      10948.657      17984.004      132531.23      40.46654       40.46654       80.93308           16000 
     87000   3399.5867      901051.99      509.84601      899902.24      900364.2       902889.54     -3665.6383      3174.7649      760.39277      7030.4576      10991.261      18021.719      132393.39      40.452507      40.452507      80.905013          16000 
     88000   3418.6539      898287.14      516.48989      898250.83      901876.85      894733.74      3951.6837     -72.510514     -318.87615      7069.8892      10961.952      18031.842      132500.29      40.463391      40.463391      80.926782          16000 
     89000   3397.0024      901195.47      523.13511      901519.21      899680.83      902386.38     -2096.6843     -2364.6708     -649.37119      7025.1133      10980.465      18005.579      132400.24      40.453204      40.453204      80.906408          16000 
     90000   3390.2976      899831.34      529.77046      901731.24      899207.96      898554.83      1835.6734      5350.8227     -4442.0115      7011.2476      10926.78       17938.028      132434.07      40.45665       40.45665       80.913299          16000 
     91000   3363.3108      902753.88      536.40782      903300.59      903572.95      901388.1      -728.14939     -2821.4122      912.07048      6955.4379      11067.977      18023.415      132359.3       40.449034      40.449034      80.898069          16000 
     92000   3401.3804      897720.62      543.04945      898698.47      895484.55      898978.82     -2706.4667     -7297.5703      1920.3112      7034.1672      10884.507      17918.675      132526.78      40.466087      40.466087      80.932174          16000 
     93000   3367.0675      904184.87      549.69515      906009.06      904205.02      902340.53     -617.07212      1897.6042      1095.2131      6963.207       11023.59       17986.797      132318.59      40.444887      40.444887      80.889774          16000 
     94000   3414.2354      898591.93      556.34127      899080.28      898807.69      897887.82      1080.2077     -3852.9619     -2099.9115      7060.7516      10952.324      18013.076      132484.8       40.461814      40.461814      80.923628          16000 
     95000   3399.4955      900007.42      562.98631      903734.87      897757.69      898529.71      338.71494      609.73517      4750.6314      7030.2691      10913.078      17943.347      132478.68      40.461191      40.461191      80.922382          16000 
     96000   3407.1564      900925.42      569.63232      900099.21      900643.69      902033.38     -1480.6095     -2823.8847     -3400.6963      7046.1121      10980.839      18026.951      132428.95      40.456128      40.456128      80.912256          16000 
     97000   3382.3875      901012.7       576.27894      899997.12      898604.2       904436.77     -690.48382      3683.6624     -3751.5735      6994.8892      10942.091      17936.98       132438.51      40.457102      40.457102      80.914203          16000 
     98000   3419.4108      900806.87      582.92405      899220.68      901086.15      902113.79     -3447.1267     -607.62328      471.89461      7071.4546      10949.005      18020.459      132427.95      40.456026      40.456026      80.912051          16000 
     99000   3395.6754      895358.51      589.6141       895086.7       896029.35      894959.48     -1224.1138      151.14795     -2668.7724      7022.3691      10858.887      17881.256      132527.91      40.466203      40.466203      80.932405          16000 
    100000   3426.1289      903250.27      596.3134       903902.51      902039.8       903808.49      4036.3842     -662.34256     -1105.1351      7085.3478      10988.775      18074.122      132365.3       40.449646      40.449646      80.899292          16000 
    101000   3403.9643      899681.69      603.00452      897894.08      900557.07      900593.91      480.10304      599.06103      1313.7791      7039.5107      10911.494      17951.005      132415.64      40.454773      40.454773      80.909545          16000 
    102000   3368.6087      898843.5       609.67463      901046.64      897951.86      897532.01      6638.5417     -1767.5359      1897.0797      6966.3942      11002.886      17969.281      132481.12      40.461439      40.461439      80.922878          16000 
    103000   3395.8978      900809.59      616.33611      901795.02      899651.78      900981.97      1028.5375      1551.7177      284.53943      7022.8289      11032.218      18055.047      132411.89      40.45439       40.45439       80.908781          16000 
    104000   3387.6996      895841.21      622.99304      896371.15      897861.8       893290.68      625.93037     -440.22661     -3771.7022      7005.8748      10854.978      17860.853      132529.81      40.466396      40.466396      80.932792          16000 
    105000   3413.2777      905426.37      629.65255      905553.04      906551.2       904174.87      4792.0219     -5475.1592     -2727.889       7058.7712      11081.351      18140.122      132326.19      40.445661      40.445661      80.891321          16000 
    106000   3364.6949      899415.3       636.30828      899645.37      898561.42      900039.1      -4982.8219     -929.48948      3505.5866      6958.3003      10898.365      17856.665      132484.04      40.461737      40.461737      80.923474          16000 
    107000   3369.9414      899078.55      642.96346      900536.04      900453.9       896245.72     -411.30344     -524.03903      6112.3282      6969.1503      11013.429      17982.58       132456.92      40.458975      40.458975      80.917951          16000 
    108000   3377.5232      901657.38      649.61855      901216.58      901554.16      902201.39      2594.3925     -3711.2533      3010.5219      6984.8297      10929.724      17914.554      132384.18      40.451569      40.451569      80.903137          16000 
    109000   3412.6406      894322.79      656.27387      895347.93      895085.64      892534.8       3359.5961      4963.2883      4078.4645      7057.4535      10808.804      17866.257      132585.66      40.47208       40.47208       80.94416           16000 
    110000   3405.1089      906331.07      662.9257       908047.04      903980.54      906965.63      481.22133      4090.0847      5403.3085      7041.8778      11084.753      18126.631      132296.91      40.442677      40.442677      80.885355          16000 
    111000   3378.9876      894474.59      669.58029      895146.46      894301.19      893976.13     -2252.7395      1012.1305     -451.69943      6987.8581      10864.525      17852.383      132573.22      40.470814      40.470814      80.941628          16000 
    112000   3427.711       902472.88      676.23494      901303.28      903154.01      902961.33      5666.5518      227.14197      5692.3676      7088.6197      10967.486      18056.105      132389.76      40.452137      40.452137      80.904274          16000 
    113000   3403.7715      901610.69      682.88647      901019.76      901252.33      902559.98      2310.717       34.452244      6806.544       7039.112       10967.972      18007.084      132412.66      40.454469      40.454469      80.908938          16000 
    114000   3441.9803      896382.78      689.5412       898290.87      896228.82      894628.65     -317.1596       766.38789     -686.44159      7118.129       10918.928      18037.057      132541.1       40.467545      40.467545      80.93509           16000 
    115000   3389.3182      905949.65      696.19421      907839.55      905286.16      904723.23      960.02224      3417.7245     -1888.9483      7009.2221      11063.502      18072.724      132237.47      40.43662       40.43662       80.87324           16000 
    116000   3415.2407      895089.23      702.84227      894570.92      894059.98      896636.79     -2664.1729      664.63293     -4901.1398      7062.8307      10928.606      17991.437      132560.74      40.469544      40.469544      80.939087          16000 
    117000   3391.4651      899778.17      709.4894       900184.55      898040.97      901108.98     -343.40371      898.4771      -3049.0183      7013.6619      10899.639      17913.301      132420.87      40.455305      40.455305      80.91061           16000 
    118000   3430.3804      902636.46      716.1371       900727.75      905910.64      901270.98      415.95766      2870.3772      4313.0068      7094.1401      10981.422      18075.562      132415.54      40.454763      40.454763      80.909525          16000 
    119000   3400.5427      896422.81      722.79402      896495.88      895778.58      896993.98     -2125.9976     -1399.8095      2812.3464      7032.4347      10880.123      17912.558      132561.15      40.469586      40.469586      80.939172          16000 
    120000   3407.5136      904653.36      729.46205      902791.25      906782.96      904385.86     -508.48753      1705.4387      1358.6466      7046.8508      11012.344      18059.195      132342.45      40.447317      40.447317      80.894635          16000 
    121000   3400.9283      897967.91      736.12755      896170.76      899598.7       898134.26     -1280.1336      187.2003      -3655.5681      7033.2321      11011.122      18044.354      132490.95      40.462441      40.462441      80.924882          16000 
    122000   3399.6608      899605.86      742.80728      900165.26      899357.35      899294.97     -5475.3111      2149.0107      199.51709      7030.6108      10935.699      17966.31       132447.44      40.458011      40.458011      80.916022          16000 
    123000   3434.7526      902385.01      749.48524      902821.28      901938.76      902395.01      282.52004      276.41247      1930.7818      7103.1818      10987.358      18090.539      132382.59      40.451406      40.451406      80.902813          16000 
    124000   3356.4735      890149.27      756.17184      893288.24      889153.07      888006.49     -4856.4024     -3565.0685     -981.31063      6941.2983      10830.008      17771.306      132679.71      40.481647      40.481647      80.963293          16000 
    125000   3412.2066      906594.94      762.85347      905952.54      905839.4       907992.89     -1987.0072      462.93414      3050.6135      7056.556       11041.925      18098.481      132304.28      40.443428      40.443428      80.886857          16000 
    126000   3378.6115      898209.47      769.54046      899924.84      896792.21      897911.35     -578.70217     -3381.0423      2580.2248      6987.0803      10866.599      17853.679      132525.96      40.466005      40.466005      80.932009          16000 
    127000   3384.2049      900038.11      776.22223      902815.16      899538.43      897760.74      5100.3794      252.78964     -1805.6973      6998.6476      11000.592      17999.24       132461.62      40.459454      40.459454      80.918909          16000 
    128000   3405.9211      901371.75      782.90428      900072.8       901972.56      902069.89      3687.1163     -2293.8955      477.70195      7043.5574      10977.685      18021.242      132427.57      40.455987      40.455987      80.911975          16000 
    129000   3398.4382      896782.59      789.58799      896480.43      897527.14      896340.2       606.94373     -1533.4729     -1953.1799      7028.0825      10867.859      17895.941      132548.36      40.468284      40.468284      80.936568          16000 
    130000   3377.0331      902065.88      796.26749      905218.65      902330.3       898648.69     -670.70313     -1210.0743     -1326.4317      6983.8162      11066.368      18050.184      132369.08      40.45003       40.45003       80.900061          16000 
    131000   3401.4493      902183.18      802.94951      899872.36      902752.56      903924.62      3274.4625     -4940.8742     -6276.7347      7034.3097      10871.064      17905.373      132391.2       40.452283      40.452283      80.904567          16000 
    132000   3422.7124      895645.31      809.62954      894573.75      895185.51      897176.67      2581.2796     -1499.6151     -1685.5613      7078.2824      10849.557      17927.839      132535.19      40.466944      40.466944      80.933888          16000 
    133000   3410.3006      902738.72      816.31068      901427.89      902391.8       904396.48      3979.9636      1810.9022     -1951.7799      7052.6143      11042.839      18095.453      132382.4       40.451387      40.451387      80.902774          16000 
    134000   3378.2117      896534.92      822.99105      896671.14      895096.15      897837.47     -1197.6505     -5120.8541     -1972.4978      6986.2534      10886.719      17872.973      132524.5       40.465855      40.465855      80.93171           16000 
    135000   3441.19        900964.53      829.67297      898901.78      901362.95      902628.86     -7749.0859     -5739.4089      2101.6317      7116.4946      11020.206      18136.701      132439.48      40.4572        40.4572        80.9144            16000 
    136000   3365.7319      901936.4       836.35419      901624.62      903157.85      901026.71      268.12826     -1284.0755      1968.0761      6960.4449      10976.353      17936.798      132383.52      40.451501      40.451501      80.903002          16000 
    137000   3405.5602      894520.1       843.03335      895103.84      894987.55      893468.9       3020.6949     -4360.0601      2025.6886      7042.8111      10810.462      17853.273      132598.81      40.473418      40.473418      80.946836          16000 
    138000   3400.1296      908890.79      849.71701      907682.44      909750.37      909239.56     -789.47846      104.70851     -378.10589      7031.5804      11060.721      18092.301      132233.71      40.436237      40.436237      80.872473          16000 
    139000   3377.8019      896138.58      856.40181      895209.76      899139.25      894066.72      77.48747       4159.1579     -94.226414      6985.4059      10840.958      17826.364      132582.44      40.471752      40.471752      80.943505          16000 
    140000   3397.2824      901428.17      863.08775      900800.51      901221.07      902262.93      1367.5554      2441.5687      2708.2348      7025.6924      10892.1        17917.792      132423.72      40.455595      40.455595      80.911191          16000 
    141000   3426.2351      902221.56      869.77195      903630.9       901497.83      901535.95      1007.2128      2113.447      -415.35547      7085.5675      10954.761      18040.329      132408.9       40.454086      40.454086      80.908172          16000 
    142000   3417.5306      899151.2       876.45101      898383.22      900423.51      898646.87     -463.08207     -4740.2824     -1473.7871      7067.5662      10874.297      17941.863      132465.42      40.459842      40.459842      80.919683          16000 
    143000   3434.1949      904177.15      883.13771      904891.08      902986.57      904653.81      658.19279     -3879.1447      240.92904      7102.0285      11003.164      18105.192      132326.11      40.445653      40.445653      80.891306          16000 
    144000   3400.224       888240.74      889.82273      886602.09      888832.89      889287.23      2019.0768      36.264443     -3863.5449      7031.7757      10782.211      17813.987      132732.64      40.48703       40.48703       80.974059          16000 
    145000   3384.4226      907643.68      896.50801      907250.47      908311.14      907369.43      1673.4975      2343.2701     -3164.243       6999.0978      11021.39       18020.488      132223.71      40.435217      40.435217      80.870434          16000 
    146000   3378.3347      901653.5       903.19118      904919.65      901826.1       898214.75     -2425.873      -4766.0185     -1443.2855      6986.5079      11019.981      18006.489      132443.63      40.457623      40.457623      80.915245          16000 
    147000   3377.6787      900151.87      909.87757      900260.52      899960.55      900234.53      3020.0151     -6427.7872      1556.0318      6985.1512      10966.642      17951.793      132440.95      40.45735       40.45735       80.9147            16000 
    148000   3364.1315      901310.58      916.55805      902527.4       902224.37      899179.97     -53.460297      1432.7182      3867.1114      6957.1352      10938.447      17895.582      132385.52      40.451705      40.451705      80.903409          16000 
    149000   3418.9285      898519.07      923.23765      897570.38      898813.08      899173.73      3535.6266      2020.5576      1960.7645      7070.4571      10901.046      17971.503      132494.84      40.462836      40.462836      80.925673          16000 
    150000   3344.8225      896100.86      929.91912      895897.27      897165.74      895239.58      774.4267       2067.3739     -453.46477      6917.2036      10917.355      17834.559      132514.22      40.46481       40.46481       80.929619          16000 
    151000   3392.4935      907592.32      936.59874      905784.96      908795.95      908196.06      766.4063       1866.6451     -4424.0819      7015.7888      11109.406      18125.195      132237.29      40.436602      40.436602      80.873203          16000 
    152000   3403.1759      893094.08      943.28031      894164.2       893903.99      891214.06     -3145.585       4158.6057     -386.77661      7037.8804      10930.624      17968.504      132638.55      40.47746       40.47746       80.954921          16000 
    153000   3388.3667      900358.28      949.96432      902994.24      897907.62      900172.98     -2398.4091     -1282.9193      2649.3013      7007.2544      10934.852      17942.107      132448.52      40.458121      40.458121      80.916242          16000 
    154000   3396.5063      902388.64      956.64697      902066.82      901211.15      903887.95     -2123.7729      4381.434       3600.0419      7024.0873      10946.743      17970.83       132462.22      40.459516      40.459516      80.919031          16000 
    155000   3399.1822      898940.4       963.32868      899900.78      899800.37      897120.06      2200.0665     -3026.2023      3787.2016      7029.6211      10970.709      18000.33       132486.62      40.462         40.462         80.923999          16000 
    156000   3336.0991      899256.44      970.01204      903335.45      897315.83      897118.02      3522.9845      1745.7988      311.03295      6899.1632      10871.446      17770.61       132449.15      40.458185      40.458185      80.91637           16000 
    157000   3404.0704      897071.61      976.69902      897582.09      896753.27      896879.48     -1769.3869     -575.83117     -3989.0768      7039.7301      10910.336      17950.066      132564.56      40.469932      40.469932      80.939864          16000 
    158000   3409.4817      906052.94      983.38832      905378.4       905944.87      906835.53      1272.7178     -514.13477      888.36468      7050.9208      11032.451      18083.371      132291.72      40.442149      40.442149      80.884298          16000 
    159000   3394.1268      889580.64      990.077        891035.71      888271.84      889434.36      1551.8388      1536.0452     -785.09281      7019.1664      10817.038      17836.204      132694.51      40.483152      40.483152      80.966304          16000 
    160000   3397.0708      905285.33      996.7638       906460.85      904821.23      904573.92     -3447.1185     -3449.779       1844.3385      7025.2548      11110.385      18135.64       132295.26      40.442509      40.442509      80.885019          16000 
    161000   3393.1847      898365.85      1003.4513      897257.67      898535.74      899304.15      761.07288      344.5908      -6589.3252      7017.2182      10870.44       17887.658      132483.52      40.461684      40.461684      80.923368          16000 
    162000   3428.0738      899643.73      1010.1374      898906.16      899355.65      900669.37     -3487.0901      2734.4686     -141.8679       7089.3699      10931.276      18020.645      132407.51      40.453945      40.453945      80.90789           16000 
    163000   3402.3071      902840.63      1016.8208      898184.58      904957.1       905380.22     -168.71729      8318.3692     -2493.3414      7036.0835      10947.194      17983.277      132347.65      40.447848      40.447848      80.895695          16000 
    164000   3440.1541      896647.3       1023.5035      896628.42      896695.58      896617.89      962.19653      1375.8043      275.12044      7114.3524      10837.504      17951.857      132514.56      40.464843      40.464843      80.929687          16000 
    165000   3403.4589      904210.58      1030.1877      902598.83      905612.72      904420.18     -1317.2722     -2005.9576      2334.2929      7038.4655      11153.451      18191.916      132356.87      40.448787      40.448787      80.897573          16000 
    166000   3393.6421      890190.99      1036.8715      891209.72      890292.36      889070.89     -4766.2274      2919.614      -916.28655      7018.164       10823.282      17841.446      132735.69      40.487339      40.487339      80.974678          16000 
    167000   3399.9531      905225.94      1043.5553      907572.38      899539.41      908566.01     -101.75677     -1217.0712     -3430.4824      7031.2154      11105.867      18137.083      132289.42      40.441915      40.441915      80.883829          16000 
    168000   3389.2434      898280.83      1050.2408      897169.33      896015.28      901657.89      3605.7133      2590.3488     -625.14783      7009.0674      10936.032      17945.099      132466.16      40.459917      40.459917      80.919834          16000 
    169000   3380.4819      900877.63      1056.9224      902447.09      898572.86      901612.95      4065.9502      2711.7753     -1437.4513      6990.9484      11000.227      17991.176      132423.25      40.455548      40.455548      80.911095          16000 
    170000   3397.0803      900895.16      1063.6049      903791.22      897812.25      901082.02     -2367.4237     -2148.4957      2812.9713      7025.2743      10894.869      17920.143      132416.83      40.454894      40.454894      80.909787          16000 
    171000   3430.6918      901916.67      1070.2915      903466.1       898068.56      904215.34      4377.0506     -5147.2896     -1735.051       7094.7841      10951.526      18046.31       132373.54      40.450484      40.450484      80.900969          16000 
    172000   3394.1234      894878.18      1076.9755      895714.01      895984.87      892935.67      1343.0122      1186.4424      363.55672      7019.1594      10770.246      17789.405      132575.26      40.471021      40.471021      80.942042          16000 
    173000   3399.3867      910767         1083.6578      909940.24      910830.76      911530         1278.5697      4217.7687      42.455626      7030.044       11073.37       18103.414      132129.85      40.425648      40.425648      80.851295          16000 
    174000   3427.2386      893984.96      1090.3438      894590.98      893197.37      894166.53      1522.5911     -662.60971      1777.4446      7087.6426      10952.229      18039.871      132645.4       40.478157      40.478157      80.956314          16000 
    175000   3368.0693      904614.83      1097.0274      905328.29      903854.82      904661.4       2928.3443      1728.4396      5995.1307      6965.2786      11058.677      18023.955      132338.94      40.44696       40.44696       80.89392           16000 
    176000   3449.3045      899409.49      1103.7135      903872.86      899792.77      894562.83      2845.3135      450.95853      108.78131      7133.2758      10940.491      18073.767      132533.84      40.466806      40.466806      80.933612          16000 
    177000   3391.6676      899727.27      1110.3973      900543.49      899803.19      898835.14      2608.3655     -208.6738       4138.4897      7014.0808      10972.097      17986.178      132443.23      40.457582      40.457582      80.915164          16000 
    178000   3382.809       898469.76      1117.082       898896.54      897598.72      898914.04     -539.26013      2478.4227      4291.0844      6995.7609      10980.967      17976.728      132518.97      40.465293      40.465293      80.930585          16000 
    179000   3408.4347      902227.94      1123.7701      902331.93      901599.07      902752.8      -959.83687      2518.368      -155.10969      7048.7556      10948.522      17997.278      132425.87      40.455814      40.455814      80.911628          16000 
    180000   3386.5043      894382.14      1130.4583      894356.53      897135.93      891653.95      5139.5116     -2191.0676      188.71098      7003.4029      10828.536      17831.938      132615.89      40.475155      40.475155      80.950311          16000 
    181000   3426.0224      908993.84      1137.1407      906870.44      910261.48      909849.61     -2921.6378      3982.804       1985.9689      7085.1276      11064.571      18149.699      132191.97      40.431981      40.431981      80.863963          16000 
    182000   3412.4179      896606.78      1143.8272      895461.98      897145.63      897212.73     -4104.916      -2516.5662      706.45367      7056.9931      10891.557      17948.55       132525.73      40.465981      40.465981      80.931962          16000 
    183000   3362.3184      901702.7       1150.5112      901406.96      901315.95      902385.18     -710.43565     -2678.6161     -1175.1967      6953.3856      10948.374      17901.759      132404.39      40.453627      40.453627      80.907254          16000 
    184000   3380.4439      898090.09      1157.1946      898618.18      895950.94      899701.13      4307.7473      2384.661      -5127.0235      6990.8697      10929.084      17919.954      132436.51      40.456897      40.456897      80.913795          16000 
    185000   3431.9218      900963.08      1163.8791      898998.9       900821.62      903068.74      952.43687     -102.52151      2563.0528      7097.3276      11005.453      18102.781      132442.25      40.457482      40.457482      80.914963          16000 
    186000   3409.0134      903752.86      1170.5648      903200.77      902946.41      905111.4      -1144.1016     -760.59465      1144.808       7049.9524      10983.634      18033.586      132351.56      40.448246      40.448246      80.896492          16000 
    187000   3440.8365      894228.2       1177.2476      892388.74      893824.88      896470.97      3869.6423      5402.2336     -3805.6727      7115.7637      10878.031      17993.795      132607.3       40.474281      40.474281      80.948563          16000 
    188000   3411.2195      906003.48      1183.931       904435.2       904268.44      909306.8      -3703.0037      5148.2329     -2358.8694      7054.5148      10947.904      18002.418      132247.24      40.437616      40.437616      80.875232          16000 
    189000   3392.1633      898247.64      1190.6139      898171.2       897094.14      899477.6       4154.0975      205.1781      -3322.7006      7015.1058      10968.182      17983.288      132476.79      40.460999      40.460999      80.921998          16000 
    190000   3411.0789      899567.77      1197.2979      901095.42      898394.02      899213.88      5718.6481     -403.02532      740.20555      7054.224       10968.071      18022.295      132477.87      40.461109      40.461109      80.922217          16000 
    191000   3362.5481      899819.13      1203.9841      899937.88      899872.88      899646.63      3319.4448     -3733.7684     -4043.1605      6953.8606      11005.076      17958.936      132427.24      40.455953      40.455953      80.911907          16000 
    192000   3424.3346      898636.86      1210.6696      898009.06      899141.7       898759.81      2599.6187      3253.2828     -2078.0865      7081.6371      10961.71       18043.347      132486.12      40.461949      40.461949      80.923897          16000 
    193000   3404.3982      902705.48      1217.3527      904321.49      900282.77      903512.16      674.49851     -1671.8515     -2.5826877      7040.4081      10895.006      17935.414      132386.86      40.451841      40.451841      80.903683          16000 
    194000   3415.651       899669.63      1224.0368      900573.34      899157.17      899278.38     -1212.9768      3902.883       46.940849      7063.6792      10993.263      18056.943      132476.12      40.460931      40.460931      80.921861          16000 
    195000   3376.8034      898772.95      1230.7218      897370.89      899885.84      899062.13     -2020.4617     -3064.2084     -1784.4741      6983.3411      10959.93       17943.271      132484.01      40.461734      40.461734      80.923469          16000 
    196000   3391.5356      895640.14      1237.4066      895770.54      893603.89      897545.99      2326.4272     -9490.3109     -881.36256      7013.8077      10918.671      17932.478      132583.66      40.471876      40.471876      80.943752          16000 
    197000   3388.2445      902909.13      1244.1068      901906.83      903239.52      903581.04     -1775.2886     -3496.5375     -1499.3827      7007.0017      11000.643      18007.645      132324.79      40.445518      40.445518      80.891036          16000 
    198000   3433.4018      898392.27      1250.7919      895746.48      900766.37      898663.97      425.28477     -1285.7922      1667.5862      7100.3885      10948.051      18048.439      132523.69      40.465774      40.465774      80.931547          16000 
    199000   3369.298       900916.51      1257.4789      900842.02      902482.93      899424.57     -737.00674      1043.6439      467.86416      6967.8196      11013.516      17981.336      132394.25      40.452594      40.452594      80.905189          16000 
    200000   3390.1158      898823.46      1264.1722      897341.01      898742.1       900387.27     -2080.9626      2713.1524     -2373.1343      7010.8715      11017.738      18028.609      132496.21      40.462976      40.462976      80.925951          16000 
    201000   3374.423       897209.45      1270.8526      896530.32      897782.14      897315.88      3745.0499      4915.4776     -1345.0255      6978.4184      10921.456      17899.875      132437.53      40.457002      40.457002      80.914004          16000 
    202000   3456.1256      898553.58      1277.535       897791.58      899891.26      897977.9       1251.8748     -545.34819     -545.9995       7147.3819      10943.623      18091.005      132484.02      40.461735      40.461735      80.92347           16000 
    203000   3390.2223      910028.12      1284.2216      909361.61      910106.22      910616.55      410.11516      2605.8292     -3432.4057      7011.0919      11099.376      18110.467      132188.13      40.43159       40.43159       80.863181          16000 
    204000   3374.5468      890566.16      1290.9062      890727.01      890450.59      890520.87      590.65776     -2283.0325      1929.5584      6978.6744      10851.842      17830.516      132684.56      40.482141      40.482141      80.964281          16000 
    205000   3395.257       900439.92      1297.5887      902056.3       900579.4       898684.07     -225.77897      1006.5799      928.11201      7021.5037      10993.488      18014.991      132375.54      40.450688      40.450688      80.901377          16000 
    206000   3419.2695      898663.78      1304.2696      900032.87      898319.09      897639.38     -271.92397     -2540.3818     -1194.7321      7071.1623      10811.385      17882.547      132473.08      40.460621      40.460621      80.921243          16000 
    207000   3431.1733      901280.45      1310.9514      897846.54      903498.37      902496.45      1639.1382     -1180.7572      542.60857      7095.7799      10907.062      18002.842      132382.92      40.45144       40.45144       80.90288           16000 
    208000   3417.442       899827.72      1317.6223      899553.87      900580.94      899348.34      536.66426     -1574.1143      3043.2336      7067.3831      10878.792      17946.175      132428.17      40.456049      40.456049      80.912097          16000 
    209000   3367.6383      895989.23      1324.2982      896132.43      893975.09      897860.16      2200.0731     -1680.9443      411.08489      6964.3873      10840.273      17804.66       132557.08      40.469171      40.469171      80.938342          16000 
    210000   3408.9291      907169.45      1330.9795      906905.09      907263.06      907340.2      -753.44532     -44.537786     -1101.3763      7049.778       11065.18       18114.958      132288.04      40.441774      40.441774      80.883548          16000 
    211000   3388.6599      895951.58      1337.6628      895259.84      897229.47      895365.43     -266.40117     -677.57921     -698.38694      7007.8607      10843.961      17851.822      132517.7       40.465163      40.465163      80.930326          16000 
    212000   3411.3774      899092.09      1344.3486      899245.89      899422.08      898608.29      261.3479       513.01683     -3133.6767      7054.8412      10935.443      17990.284      132449.87      40.458258      40.458258      80.916517          16000 
    213000   3358.6445      900346.74      1351.0291      902403.58      899419.66      899216.98      2024.091      -1541.0961      2338.0679      6945.788       10889.273      17835.061      132377.96      40.450935      40.450935      80.90187           16000 
    214000   3358.5466      897352.98      1357.7094      897471.99      897120.86      897466.08      2564.1352     -480.51616      3664.1846      6945.5854      11046.485      17992.07       132497.75      40.463133      40.463133      80.926266          16000 
    215000   3392.4757      906261.1       1364.3941      906010.24      905005.15      907767.89     -1729.6976     -2210.2661      2421.7384      7015.7519      10955.91       17971.661      132290.53      40.442028      40.442028      80.884055          16000 
    216000   3393.4109      893269.63      1371.0746      890102.66      894341.01      895365.21      2378.6056     -143.4816       1650.1099      7017.6859      10867.963      17885.649      132654.97      40.47913       40.47913       80.958261          16000 
    217000   3412.2938      906898.19      1377.7501      906906.14      908457.44      905331        -4636.7032      2556.9402     -1827.1949      7056.7364      11014.276      18071.012      132323.11      40.445347      40.445347      80.890694          16000 
    218000   3385.8469      899468.15      1384.427       899277.31      897822.75      901304.39      3410.9888     -969.96411     -1070.917       7002.0433      11016.841      18018.885      132465.26      40.459825      40.459825      80.91965           16000 
    219000   3402.9705      899215.92      1391.1034      899369.67      899544.17      898733.93     -1584.7565      2966.8831      2502.1435      7037.4556      10934.284      17971.739      132507.78      40.464154      40.464154      80.928308          16000 
    220000   3378.434       903358.9       1397.7826      905478.67      903246.78      901351.25      639.68165     -1121.7324     -2003.7753      6986.7133      10976.657      17963.371      132368.93      40.450015      40.450015      80.90003           16000 
    221000   3412.4826      896253.27      1404.4601      898989.46      894358.11      895412.25      1132.0741     -708.53962     -2834.5384      7057.1269      10897.871      17954.998      132579.95      40.471499      40.471499      80.942997          16000 
    222000   3379.1493      904541.76      1411.1401      904755.79      904518.83      904350.64      3835.9587      1743.8651     -514.28485      6988.1925      11002.6        17990.792      132336.51      40.446712      40.446712      80.893424          16000 
    223000   3356.6086      898608.02      1417.8209      898076.61      898168.14      899579.3      -1334.0174     -5955.8261      5796.3093      6941.5776      10911.623      17853.201      132474.92      40.460808      40.460808      80.921617          16000 
    224000   3420.989       899209.49      1424.5033      900256.49      899186.06      898185.94     -976.03924      4226.531       1846.2012      7074.7184      10902.555      17977.273      132502.38      40.463604      40.463604      80.927208          16000 
    225000   3384.2026      901439.45      1431.1819      901522.06      900719.53      902076.76      514.29494      319.74378      3422.1984      6998.6429      10905.421      17904.063      132357.48      40.448849      40.448849      80.897698          16000 
    226000   3376.8275      896777.22      1437.8582      895451.51      897360.24      897519.89     -879.1358      -2686.6357     -1529.0834      6983.391       10907.051      17890.442      132482.56      40.461587      40.461587      80.923173          16000 
    227000   3399.8042      900889.52      1444.5434      900757.94      900078.4       901832.22     -4332.1993      369.43223      1227.8536      7030.9075      11013.168      18044.075      132416.87      40.454897      40.454897      80.909795          16000 
    228000   3387.0915      901054.4       1451.2262      900786.92      901933.62      900442.67      773.48565     -4.7139545      3055.3192      7004.6171      10946.049      17950.666      132388.94      40.452053      40.452053      80.904107          16000 
    229000   3391.0955      894577.52      1457.9037      894398.08      895996.91      893337.55     -380.4912       1498.6043      3370.9209      7012.8975      10878.369      17891.266      132600.16      40.473555      40.473555      80.94711           16000 
    230000   3390.8589      905551.23      1464.5836      907195.24      904590.67      904867.76      4178.2482      3965.5032     -733.59658      7012.4083      11029.529      18041.937      132259.42      40.438858      40.438858      80.877715          16000 
    231000   3414.2996      892835         1471.2651      891719.97      893885.67      892899.35     -6650.3187     -627.25201      1077.1901      7060.8844      10931.589      17992.474      132598.37      40.473373      40.473373      80.946745          16000 
    232000   3421.0698      902294.82      1477.9476      901749.32      904108.59      901026.55      3606.9661     -2673.422       3387.7617      7074.8854      10877.814      17952.699      132392.06      40.452371      40.452371      80.904743          16000 
    233000   3401.8641      901978.69      1484.6314      902675.78      899976.46      903283.83     -1539.7067     -5798.0371     -757.38683      7035.1674      11031.265      18066.432      132435.48      40.456793      40.456793      80.913585          16000 
    234000   3373.9446      898996.36      1491.3141      898056.43      901058.4       897874.27      6001.341       2954.927      -1841.4273      6977.429       10819.19       17796.619      132436.23      40.456869      40.456869      80.913738          16000 
    235000   3434.7507      903026.06      1497.9961      902549.28      900962.28      905566.63     -93.257407     -1039.6182      867.0004       7103.1781      10924.234      18027.413      132420.79      40.455297      40.455297      80.910594          16000 
    236000   3440.8238      899222.6       1504.6744      897983.9       898583.63      901100.26      2266.4973     -325.32448     -2013.3366      7115.7374      10936.702      18052.44       132455.68      40.45885       40.45885       80.9177            16000 
    237000   3381.3978      892802.98      1511.3546      889760.5       895203.42      893445.01     -2492.5854      1704.2227      2011.3378      6992.8424      10737.211      17730.053      132670.18      40.480677      40.480677      80.961355          16000 
    238000   3445.5722      904707.17      1518.0358      904169.72      906097.35      903854.45      3877.9824      4111.6595     -2546.477       7125.5573      10984.391      18109.949      132336.38      40.446699      40.446699      80.893398          16000 
    239000   3416.5558      897108.6       1524.7154      898667.04      897480.06      895178.69      1635.7776      1391.2202      1012.4613      7065.5503      10868.19       17933.74       132514.36      40.464823      40.464823      80.929646          16000 
    240000   3401.7905      900476.81      1531.398       901973.94      897227.15      902229.33      1087.395       1394.4349      1328.9262      7035.0152      11047.455      18082.47       132417.32      40.454943      40.454943      80.909886          16000 
    241000   3411.5624      899365.68      1538.0786      898027.28      901176.04      898893.73     -43.244424      4142.9809      9733.9803      7055.2238      10918.117      17973.341      132459.61      40.45925       40.45925       80.918499          16000 
    242000   3391.7996      901478.11      1544.7633      900439.87      900542.98      903451.47     -839.86184      1971.6241      1055.4797      7014.3537      10959.479      17973.833      132373.67      40.450498      40.450498      80.900997          16000 
    243000   3404.8675      900841.23      1551.4456      899388.01      901525.74      901609.94     -1606.0731     -2454.1139     -1068.6635      7041.3786      10977.431      18018.81       132401.93      40.453376      40.453376      80.906752          16000 
    244000   3379.9388      896159.49      1558.1282      898017.36      895806.33      894654.77      404.37825     -3508.5208     -2822.4232      6989.8252      10887.761      17877.586      132528.31      40.466243      40.466243      80.932486          16000 
    245000   3436.6811      912277.53      1564.8149      914126.02      913786.77      908919.81      2299.9157      769.0589       3030.9226      7107.1701      11098.791      18205.961      132158.12      40.42853       40.42853       80.85706           16000 
    246000   3356.7403      894098.24      1571.4972      895583.59      893070.22      893640.92      6686.233      -4015.7569      1049.2533      6941.8499      10869.362      17811.212      132602.57      40.4738        40.4738        80.947601          16000 
    247000   3443.3564      902089.51      1578.1804      903152.81      901725.64      901390.09     -596.48614     -4072.3518     -1019.2924      7120.9749      10953.025      18074          132392.56      40.452422      40.452422      80.904843          16000 
    248000   3438.2409      899068.47      1584.8663      899442.59      898138.02      899624.79     -728.90043      2941.1881     -1863.3056      7110.3958      10855.738      17966.134      132497.63      40.46312       40.46312       80.92624           16000 
    249000   3378.3277      901516.61      1591.5528      901945.78      901880.11      900723.95      4430.2386      1058.7265     -2074.5847      6986.4934      11000.969      17987.462      132398.64      40.453041      40.453041      80.906083          16000 
    250000   3379.418       899114.14      1598.2322      900936.74      897970.42      898435.26     -825.24687     -2374.4602      1989.2632      6988.7481      10947.803      17936.551      132467.59      40.460062      40.460062      80.920124          16000 
    251000   3405.6156      902039.05      1604.9154      903415.62      902511.29      900190.23     -3112.8668     -3012.17       -2089.0844      7042.9257      10980.958      18023.884      132420.1       40.455227      40.455227      80.910454          16000 
    252000   3372.6512      899573         1611.5942      899560.81      899692.97      899465.23     -4903.3787      2341.1107     -6495.604       6974.7541      10931.937      17906.691      132378.74      40.451015      40.451015      80.90203           16000 
    253000   3346.561       894351.65      1618.2724      894705.16      894084.03      894265.77      2096.5197     -1898.7512     -3321.3776      6920.7987      10893.26       17814.059      132598.06      40.473342      40.473342      80.946683          16000 
    254000   3394.5352      906103.72      1624.9522      907380.02      906747.56      904183.57     -1062.9029      1323.3003     -283.51444      7020.011       10993.579      18013.59       132300.93      40.443087      40.443087      80.886174          16000 
    255000   3439.7475      894819.83      1631.6338      893834.31      894680.18      895945         453.42379      915.93762     -406.83748      7113.5115      10959.89       18073.402      132565.67      40.470045      40.470045      80.94009           16000 
    256000   3364.5265      901927.3       1638.3041      902711.12      902143.07      900927.71     -617.31133      3243.1184      1212.7946      6957.952       10993.804      17951.756      132416.77      40.454888      40.454888      80.909776          16000 
    257000   3394.2283      899229.76      1644.9683      898333.06      898707.08      900649.13      4954.7601      402.71372     -5580.1319      7019.3763      10832.263      17851.639      132483.72      40.461704      40.461704      80.923409          16000 
    258000   3410.9052      897739.08      1651.6264      897220.41      897078.29      898918.54     -1936.4982      1169.3738     -821.97477      7053.8648      10878.938      17932.803      132553.14      40.46877       40.46877       80.937541          16000 
    259000   3404.7237      905764.44      1658.2855      906115.3       904201.28      906976.74     -363.63403      6663.4354      1584.9121      7041.0812      10913.376      17954.457      132295.14      40.442497      40.442497      80.884995          16000 
    260000   3409.4355      889551.34      1664.95        888010.21      890263.89      890379.93      74.639188      2979.8699     -2152.7172      7050.8254      10872.771      17923.596      132716.69      40.485407      40.485407      80.970815          16000 
    261000   3385.5609      909167.98      1671.623       909377.21      908876.77      909249.97      3692.4734     -1823.7228      2589.5567      7001.4519      11064.684      18066.136      132237.98      40.436672      40.436672      80.873343          16000 
    262000   3409.3009      897144.36      1678.2974      899077.84      896333.58      896021.64     -233.6363       659.71932     -4641.0403      7050.547       10894.513      17945.06       132499.12      40.463272      40.463272      80.926545          16000 
    263000   3453.1154      900688.75      1684.9743      902118.52      900601.07      899346.67      1742.0267      5104.4912     -3778.423       7141.1567      10956.966      18098.123      132461.78      40.45947       40.45947       80.918941          16000 
    264000   3388.7794      898905.7       1691.6493      898718         900473.91      897525.18      498.15221      1560.0716     -2702.138       7008.1078      11022.902      18031.009      132489.79      40.462322      40.462322      80.924645          16000 
    265000   3355.4164      900277.92      1698.3253      898756.24      900716.93      901360.58     -912.8375      -2920.6383     -1680.6306      6939.1121      10975.74       17914.853      132410.73      40.454272      40.454272      80.908545          16000 
    266000   3426.2628      898385.39      1705.0047      898681         897904.61      898570.56      2105.4802      1103.0093     -7240.7042      7085.6248      10940.527      18026.152      132483.8       40.461713      40.461713      80.923426          16000 
    267000   3386.387       898075.25      1711.6877      897929.93      897681.21      898614.62      3567.1538      767.59373     -647.67345      7003.1602      10916.76       17919.92       132483.95      40.461728      40.461728      80.923456          16000 
    268000   3427.3959      908270.9       1718.3691      906819.47      906872.21      911121.02      2200.1404      688.77905      3716.0717      7087.9681      11033.18       18121.148      132240.52      40.43693       40.43693       80.873861          16000 
    269000   3401.7795      895392.4       1725.0565      895669.24      894365.48      896142.48      1892.9424      6038.4098      2240.7885      7034.9925      10823.016      17858.008      132590.99      40.472622      40.472622      80.945244          16000 
    270000   3396.6392      904506.99      1731.7418      904625.58      901540.69      907354.71      2339.2896     -2246.1463      1328.0385      7024.3621      10978.18       18002.542      132364.68      40.449582      40.449582      80.899164          16000 
    271000   3405.4066      895784.24      1738.4237      896825.62      893933.47      896593.61      3161.8858     -2514.6717     -2090.5313      7042.4934      10967.637      18010.13       132571.53      40.470642      40.470642      80.941284          16000 
    272000   3393.206       901909.04      1745.1051      901973.15      903814.53      899939.42      1743.2613     -1643.0249     -2287.6712      7017.2621      10935.507      17952.769      132385         40.451652      40.451652      80.903303          16000 
    273000   3417.9557      896107.8       1751.7857      894954.71      898177.1       895191.61      1527.0926     -2768.3265      3567.5811      7068.4453      11010.392      18078.838      132555.33      40.468993      40.468993      80.937987          16000 
    274000   3360.3713      899187.09      1758.4682      895177.7       902064.61      900318.95      2175.7376     -1217.7325     -4740.8837      6949.3589      11024.085      17973.444      132438.06      40.457056      40.457056      80.914112          16000 
    275000   3367.5904      903582.85      1765.1535      906265.3       902624.47      901858.79      2933.3494      3671.707      -2174.8328      6964.2883      10956.625      17920.914      132355.32      40.448628      40.448628      80.897256          16000 
    276000   3428.0164      897372.4       1771.8348      899067.07      895898.66      897151.48      1731.3642     -1023.1201      709.18362      7089.2513      10863.31       17952.561      132551.14      40.468567      40.468567      80.937135          16000 
    277000   3393.4226      902414.69      1778.5154      902152.32      903193.86      901897.89     -326.35947      3698.4345      800.31721      7017.7102      10963          17980.711      132367.42      40.449861      40.449861      80.899723          16000 
    278000   3433.5779      896951.16      1785.1955      896956.1       896787.63      897109.75      44.0435        51.672579      209.55612      7100.7527      10768.204      17868.956      132493.66      40.462716      40.462716      80.925432          16000 
    279000   3400.513       901661.04      1791.8771      899301.87      904424.21      901257.06     -585.47428      3217.2111      1821.1585      7032.3733      11014.19       18046.563      132408.02      40.453996      40.453996      80.907992          16000 
    280000   3402.7619      896303.97      1798.56        896668.94      896190.92      896052.05      5593.2648     -6164.9932      1405.0904      7037.0241      10901.707      17938.731      132543.19      40.467758      40.467758      80.935516          16000 
    281000   3421.3855      908203.9       1805.2434      908387.84      907084.99      909138.88      1456.3622      495.57795      2390.7297      7075.5384      11057.296      18132.834      132248.77      40.437772      40.437772      80.875544          16000 
    282000   3396.3979      893546.81      1811.9271      891823.02      896347.84      892469.58     -4336.7684     -3448.5045     -1004.23        7023.8631      10854.574      17878.437      132599.71      40.473509      40.473509      80.947018          16000 
    283000   3425.9505      904096.75      1818.6081      906325.67      901246.72      904717.86     -564.93423     -1543.1792      4084.6836      7084.9789      11028.825      18113.804      132364.27      40.44954       40.44954       80.89908           16000 
    284000   3401.0462      898985.18      1825.2902      897526.1       900297.69      899131.76      145.05269      2409.8592     -2843.5098      7033.4759      10894.628      17928.104      132475.25      40.460842      40.460842      80.921683          16000 
    285000   3444.1531      899705.01      1831.9706      898987.73      897796.78      902330.51      2772.1873      1619.4282     -2999.1903      7122.6225      11009.199      18131.821      132471.61      40.460472      40.460472      80.920944          16000 
[...]
   3930000   4431.3437      900578.07      6692.8616      904090.53      905623.14      892020.55     -58912.118     -8262.5531      4011.0784      9164.1653      22282.9        31447.065      119166.96      39.312532      39.312532      77.107005          16000 
   3931000   4412.7903      901916.37      6700.0364      905534.06      906741.52      893473.55     -62208.937     -4368.2048     -1669.3438      9125.7961      22302.105      31427.901      119199.73      39.316135      39.316135      77.114071          16000 
   3932000   4443.6674      904406.97      6707.2118      907667.48      909736.84      895816.61     -61896.864     -676.65115      3726.9578      9189.6511      22301.641      31491.292      119086.41      39.303672      39.303672      77.089627          16000 
   3933000   4509.9522      886918.04      6714.3857      889438.02      890552         880764.11     -60197.286      711.11044      1666.3443      9326.7302      21957.225      31283.955      119455.66      39.344253      39.344253      77.169222          16000 
   3934000   4449.1159      908075.49      6721.5563      907965.37      914284.25      901976.86     -56013.456      287.06481     -9042.1283      9200.9188      22347.676      31548.595      118981.76      39.292156      39.292156      77.06704           16000 
   3935000   4429.5917      904974.11      6728.7281      905330.53      912258.76      897333.04     -56563.738     -2362.6049     -12076.286      9160.542       22329.138      31489.68       119084.67      39.303481      39.303481      77.089251          16000 
   3936000   4418.0231      893191.4       6735.9006      896279.61      896196.43      887098.17     -57667.445      2549.1803      742.16744      9136.6179      22195.781      31332.399      119364.38      39.334229      39.334229      77.149562          16000 
   3937000   4459.5476      904095.33      6743.0763      908609.34      906762.91      896913.76     -56489.778      1573.552       4488.9095      9222.4919      22274.076      31496.567      119070.04      39.301871      39.301871      77.086094          16000 
   3938000   4446.8891      896280.99      6750.2488      900809.68      899760.47      888272.81     -55183.35       746.89935     -183.51238      9196.3136      22203.5        31399.813      119239.94      39.320556      39.320556      77.122742          16000 
   3939000   4434.6314      907184.46      6757.4206      913011.2       907935.07      900607.12     -58017.454      248.89735     -2227.0494      9170.9644      22349.86       31520.824      119023.63      39.296764      39.296764      77.076078          16000 
   3940000   4433.1314      892406.76      6764.5894      893236.65      898423.8       885559.85     -60612.004      1230.5224     -1651.7293      9167.8624      22135.726      31303.589      119410.53      39.339297      39.339297      77.159502          16000 
   3941000   4423.7846      904871.56      6771.7583      914275.09      904643.31      895696.27     -57262.718      3010.3005      1445.0414      9148.5327      22352.555      31501.088      119056.26      39.300355      39.300355      77.08312           16000 
   3942000   4451.5427      902468.07      6778.9279      903002.51      905147.24      899254.45     -56475.682      4078.9038      2983.3926      9205.9374      22274.178      31480.115      119092.49      39.304341      39.304341      77.090939          16000 
   3943000   4442.3896      896755.45      6786.0969      899590.59      899095.21      891580.56     -58136.38      -816.14568      872.11203      9187.0085      22186.657      31373.666      119281.8       39.325156      39.325156      77.131765          16000 
   3944000   4456.6748      901185.58      6793.2673      907945.42      903200.58      892410.74     -61247.318      4447.7395      4170.2505      9216.5509      22260.815      31477.365      119096.48      39.304779      39.304779      77.091799          16000 
   3945000   4437.5384      900521.49      6800.435       905921.46      901768.28      893874.74     -56592.313     -749.66539      5202.6182      9176.9761      22262.939      31439.915      119162.87      39.312082      39.312082      77.106122          16000 
   3946000   4433.0222      899473.66      6807.6054      902564.26      901100.11      894756.59     -55266.656     -3777.5895     -2122.6865      9167.6364      22239.794      31407.43       119219.13      39.318268      39.318268      77.118255          16000 
   3947000   4466.6036      896693.09      6814.7784      903170.05      900709.94      886199.27     -60267.808      6121.369      -4617.5942      9237.084       22166.037      31403.121      119226.2       39.319045      39.319045      77.119779          16000 
   3948000   4487.2308      904890.03      6821.9507      905550.44      908644.32      900475.32     -60334.761     -1327.1517     -291.21712      9279.7417      22252.961      31532.702      118994.78      39.293589      39.293589      77.069851          16000 
   3949000   4453.7652      899265.33      6829.125       900991.51      905018.46      891786.01     -56374.635     -2438.2905      5858.7561      9210.5338      22214.718      31425.252      119185.58      39.31458       39.31458       77.111021          16000 
   3950000   4429.71        905359.1       6836.2973      910184.99      907655.76      898236.54     -56475.591      6486.7031     -3029.3032      9160.7867      22323.359      31484.146      119080.48      39.303019      39.303019      77.088347          16000 
   3951000   4390.812       895239.07      6843.4718      898709.67      895923.97      891083.55     -58934.012     -588.50811     -4729.8993      9080.3444      22240.785      31321.129      119370.38      39.334888      39.334888      77.150854          16000 
   3952000   4469.4808      903964.55      6850.6432      905919.49      909681.21      896292.95     -62054.665     -2422.9154     -1488.6493      9243.034       22285.549      31528.583      119000.36      39.294204      39.294204      77.071056          16000 
   3953000   4486.0845      897993.72      6857.8158      903712.35      907585.25      882683.55     -63030.896     -535.28632      3250.903       9277.371       22171.721      31449.092      119138.14      39.309362      39.309362      77.100787          16000 
   3954000   4473.4195      903626.49      6864.9889      908904.34      905270.62      896704.52     -60243.419     -2945.41        7247.8937      9251.1794      22213.696      31464.875      119108.67      39.306121      39.306121      77.09443           16000 
   3955000   4417.9464      901348.62      6872.1622      899497.22      908435.43      896113.22     -63547.387     -4764.2246     -1850.6988      9136.4593      22321.152      31457.611      119120.73      39.307448      39.307448      77.097033          16000 
   3956000   4453.3747      895172.7       6879.3382      898309.82      899339.28      887868.99     -57201.996      1331.9446     -4904.0154      9209.7262      22189.279      31399.005      119223.05      39.318699      39.318699      77.1191            16000 
   3957000   4432.1917      898575.98      6886.5102      904238.2       900269.44      891220.29     -53552.826      1267.4097      5076.497       9165.919       22222.539      31388.458      119241.67      39.320746      39.320746      77.123115          16000 
   3958000   4445.3549      898153.96      6893.6783      898755.86      902883.48      892822.55     -56470.235     -5255.6334     -3171.9558      9193.1409      22240.98       31434.121      119156.24      39.311353      39.311353      77.104692          16000 
   3959000   4454.6053      904168.66      6900.8459      911528.62      906560.44      894416.91     -59924.511     -3636.9211     -9743.1382      9212.271       22252.788      31465.059      119100.21      39.30519       39.30519       77.092605          16000 
   3960000   4432.6804      903622.66      6908.0157      904714.21      911993         894160.76     -58488.502      8391.3887      4472.1132      9166.9295      22348.511      31515.44       119009.2       39.295176      39.295176      77.072963          16000 
   3961000   4394.0387      890103.52      6915.187       890801.87      897546.59      881962.11     -60884.487     -390.09732     -2756.9055      9087.0172      22221.083      31308.1        119377.71      39.335693      39.335693      77.152432          16000 
   3962000   4441.3995      905653.72      6922.3582      907203.74      907675.53      902081.87     -55168.977      354.92484     -7971.8788      9184.961       22273.106      31458.067      119107.36      39.305977      39.305977      77.094149          16000 
   3963000   4415.7681      900474.84      6929.5302      906127.51      906366.06      888930.95     -63292.002     -4282.5962      1019.6299      9131.9545      22217.363      31349.317      119299.82      39.327136      39.327136      77.13565           16000 
   3964000   4455.7778      895679.69      6936.701       901410.97      900477.24      885150.85     -62332.129     -523.37831      634.47776      9214.6957      22174.517      31389.213      119227.79      39.31922       39.31922       77.120122          16000 
   3965000   4450.6392      900848.58      6943.876       903426.76      910345.27      888773.7      -59312.276      2200.0784      2755.9606      9204.0691      22263.25       31467.319      119088.59      39.303912      39.303912      77.090098          16000 
   3966000   4435.5704      898967.47      6951.0491      907754.32      901914.79      887233.29     -59004.719     -6238.3462     -1580.7656      9172.9063      22229.619      31402.526      119201.66      39.316348      39.316348      77.114489          16000 
   3967000   4453.3189      899570.58      6958.2202      903442         902860.44      892409.29     -60960.483      2876.3369     -2996.4497      9209.6108      22204.735      31414.346      119180.06      39.313972      39.313972      77.10983           16000 
   3968000   4466.2622      897089.3       6965.3922      899146.21      904914.97      887206.71     -63800.419      3334.0863      1748.2803      9236.378       22158.668      31395.046      119212.77      39.317568      39.317568      77.116883          16000 
   3969000   4460.8132      896097.14      6972.5662      900166.19      896784.63      891340.6      -59352.329      3401.4713      1106.934       9225.1093      22150.444      31375.553      119246.88      39.321318      39.321318      77.124238          16000 
   3970000   4443.5022      905045.95      6979.7376      911977.42      911088.5       892071.92     -60586.583      1346.865      -1560.7976      9189.3096      22298.976      31488.286      119045.88      39.299213      39.299213      77.080881          16000 
   3971000   4438.451       899322.84      6986.9101      902481.32      903821.53      891665.66     -62633.575      1426.1601     -3894.9841      9178.8634      22253.676      31432.539      119144.95      39.310111      39.310111      77.102257          16000 
   3972000   4425.455       894137.01      6994.0835      892924         899780.54      889706.48     -54775.971      2339.9672     -1400.2715      9151.9873      22136.698      31288.685      119401.26      39.33828       39.33828       77.157506          16000 
   3973000   4446.1216      907259.61      7001.256       908726.76      911623.08      901428.98     -60974.023     -803.84334     -1349.4933      9194.7265      22319.121      31513.847      118996.94      39.293827      39.293827      77.070317          16000 
   3974000   4456.1078      897589.53      7008.4298      899206.16      906077.17      887485.25     -57453.775      4637.9283     -4153.53        9215.3782      22166.327      31381.705      119230.67      39.319536      39.319536      77.120742          16000 
   3975000   4452.106       896472.14      7015.6027      901662.39      899961.32      887792.71     -57809.793      3284.8361      1452.7089      9207.1024      22164.638      31371.74       119247.93      39.321434      39.321434      77.124465          16000 
   3976000   4460.6296      903662.19      7022.7742      908024.04      907109.76      895852.77     -60271.526      1688.3815      163.40306      9224.7295      22250.847      31475.577      119063.37      39.301137      39.301137      77.084655          16000 
   3977000   4497.8788      900572.66      7029.9448      903171.53      903993.8       894552.65     -59703.644      1889.6829      1691.5214      9301.7621      22160.415      31462.177      119086.57      39.30369       39.30369       77.089662          16000 
   3978000   4462.2893      900571.78      7037.1184      904942.76      903981.95      892790.62     -58328.64      -4364.1854     -4445.9276      9228.1617      22201.017      31429.178      119144.33      39.310043      39.310043      77.102124          16000 
   3979000   4450.0196      900269.81      7044.2914      908087.42      906331.24      886390.78     -59807.895     -4358.3016     -689.30883      9202.7876      22249.16       31451.948      119103.66      39.305569      39.305569      77.093348          16000 
   3980000   4410.6849      891755.27      7051.4629      896891.12      888557.86      889816.84     -58476.793     -656.00951      3623.2377      9121.4422      22158.568      31280.01       119408.43      39.339067      39.339067      77.15905           16000 
   3981000   4517.1961      898128.25      7058.6349      899476.74      901666.13      893241.87     -56940.063      2443.8375     -1041.2736      9341.7109      22101.846      31443.557      119115.34      39.306855      39.306855      77.095869          16000 
   3982000   4444.3554      906125.63      7065.8068      913939.55      913375.24      891062.11     -57414.534     -2519.3808     -2959.6406      9191.0739      22284.075      31475.149      119059.41      39.300702      39.300702      77.083801          16000 
   3983000   4486.4473      898508.11      7072.9821      902974.47      903825.82      888724.03     -58500.45      -2654.3577      8106.8154      9278.1213      22137.832      31415.953      119162.27      39.312017      39.312017      77.105994          16000 
   3984000   4428.9859      892439.35      7080.1567      896714.96      896580.78      884022.3      -60436.93       2463.3087     -341.25865      9159.2893      22169.222      31328.511      119317.67      39.329098      39.329098      77.139496          16000 
   3985000   4450.9448      900671.77      7087.3286      900039.56      904844.49      897131.25     -57323.38       2653.1238     -3932.9104      9204.7011      22213.216      31417.917      119156.29      39.311359      39.311359      77.104704          16000 
   3986000   4445.4205      898496.85      7094.5019      903434.05      904545.5       887511.01     -54608.401     -3209.5544     -405.16595      9193.2765      22222.889      31416.165      119158.96      39.311652      39.311652      77.105279          16000 
   3987000   4418.5716      900597.03      7101.6753      905362.16      899468.13      896960.81     -54655.835      832.04554      2832.2363      9137.7522      22257.254      31395.006      119196.77      39.315809      39.315809      77.113433          16000 
   3988000   4466.392       905144.72      7108.8491      907890.96      906825.69      900717.5      -58742.941      512.74963     -560.68138      9236.6463      22258.08       31494.727      119017.43      39.296082      39.296082      77.07474           16000 
   3989000   4476.633       903561.66      7116.0247      905809.81      908332.22      896542.95     -55854.553      2013.7362      3616.5202      9257.825       22249.248      31507.073      118995.51      39.293669      39.293669      77.070007          16000 
   3990000   4436.9042      904345.73      7123.2024      911618.96      907711.11      893707.13     -55359.344     -1996.0618      7717.2287      9175.6647      22248.694      31424.359      119142.76      39.30987       39.30987       77.101784          16000 
   3991000   4501.3437      891444.51      7130.3765      890716.3       897560.61      886056.63     -58854.168      5925.936      -880.24766      9308.9275      22010.975      31319.903      119325.85      39.329997      39.329997      77.141259          16000 
   3992000   4464.6962      901089.77      7137.5501      908941.12      905885.53      888442.67     -56728.631      1771.6336     -632.70696      9233.1394      22217.876      31451.015      119091.38      39.304218      39.304218      77.090699          16000 
   3993000   4438.2216      911875.15      7144.7226      915006.85      913754.62      906863.97     -57859.122     -831.39455      1048.3901      9178.3889      22373.375      31551.764      118912.17      39.284494      39.284494      77.052011          16000 
   3994000   4423.0209      899817.4       7151.8944      905368.93      903900.62      890182.65     -59783.947      3096.4585      876.12369      9146.9534      22242.995      31389.948      119198.97      39.316052      39.316052      77.113909          16000 
   3995000   4485.2178      895211.79      7159.0642      898247.57      900456.37      886931.41     -62575.439      426.76329      356.54095      9275.5787      22108.75       31384.329      119207.31      39.316968      39.316968      77.115706          16000 
   3996000   4465.1136      903573.93      7166.2343      908252.66      905937.89      896531.25     -61215.641      694.77667     -2931.8409      9234.0026      22233.952      31467.954      119058.46      39.300597      39.300597      77.083596          16000 
   3997000   4440.1555      899450.91      7173.4054      904332.57      905103.49      888916.67     -59258.317     -5926.2582     -3811.5946      9182.3885      22228.926      31411.314      119159.23      39.311682      39.311682      77.105338          16000 
   3998000   4481.8416      896565.34      7180.577       900433.71      905131.3       884131.01     -62009.516     -574.13741      663.33928      9268.5967      22127.822      31396.418      119184.97      39.314512      39.314512      77.110888          16000 
   3999000   4442.7957      905843.6       7187.7498      908443.49      910484.71      898602.6      -62354.424      8554.0464     -3323.6807      9187.8483      22324.83       31512.679      118976.82      39.291612      39.291612      77.065973          16000 
   4000000   4439.2068      893366.63      7194.9256      896965.34      895349.78      887784.78     -59449.711     -3725.7743     -6863.5478      9180.4264      22126.054      31306.481      119341.94      39.331764      39.331764      77.144727          16000 
Loop time of 7194.93 on 8 procs for 1000000 steps with 16000 atoms

Performance: 6.004 ns/day, 3.997 hours/ns, 138.987 timesteps/s
59.5% CPU use with 1 MPI tasks x 8 OpenMP threads

MPI task timing breakdown:
Section |  min time  |  avg time  |  max time  |%varavg| %total
---------------------------------------------------------------
Pair    | 6901       | 6901       | 6901       |   0.0 | 95.91
Neigh   | 14.726     | 14.726     | 14.726     |   0.0 |  0.20
Comm    | 43.423     | 43.423     | 43.423     |   0.0 |  0.60
Output  | 1.4578     | 1.4578     | 1.4578     |   0.0 |  0.02
Modify  | 209.06     | 209.06     | 209.06     |   0.0 |  2.91
Other   |            | 25.28      |            |       |  0.35

Nlocal:          16000 ave       16000 max       16000 min
Histogram: 1 0 0 0 0 0 0 0 0 0
Nghost:          15614 ave       15614 max       15614 min
Histogram: 1 0 0 0 0 0 0 0 0 0
Neighs:              0 ave           0 max           0 min
Histogram: 1 0 0 0 0 0 0 0 0 0
FullNghs:   1.9206e+06 ave  1.9206e+06 max  1.9206e+06 min
Histogram: 1 0 0 0 0 0 0 0 0 0

Total # of neighbors = 1920596
Ave neighs/atom = 120.03725
Neighbor list builds = 34395
Dangerous builds = 0
Total wall time: 7:58:14
