
atom_style atomic
units metal
boundary p p p
#atom_modify sort 0 0.0
newton on

read_data data.lammps
Reading data file ...
  triclinic box = (0 0 0) to (4.3790145 4.3790145 4.3790145) with tilt (-0 0 0)
  1 by 1 by 1 MPI processor grid
  reading atoms ...
  8 atoms
  read_data CPU = 0.003 seconds
replicate 10 10 20
Replicating atoms ...
  triclinic box = (0 0 0) to (43.790145 43.790145 87.58029) with tilt (-0 0 0)
  1 by 1 by 1 MPI processor grid
  16000 atoms
  replicate CPU = 0.019 seconds

### interactions

pair_style flare
pair_coeff * * lmp.flare
Reading potential file lmp.flare with DATE: Thu

# compute unc all flare/std/atom L_inv_lmp.flare sparse_desc_lmp.flare
# compute MaxUnc all reduce max c_unc

mass 1 12.011000
mass 2 28.085000

thermo_style custom step temp press cpu pxx pyy pzz pxy pxz pyz ke pe etotal vol lx ly lz atoms    #c_MaxUnc
thermo 1000
timestep 0.0005
restart 100000 restart_*.dat

#################### Equilibrate at P and T_es ##############################
velocity all create $T 41928459 rot yes dist gaussian
velocity all create 3800 41928459 rot yes dist gaussian
fix mom all momentum 1000 linear 1 1 1 angular

fix 1 all npt temp $T $T $(100.0*dt) iso $P $P $(1000.0*dt)
fix 1 all npt temp 3800 $T $(100.0*dt) iso $P $P $(1000.0*dt)
fix 1 all npt temp 3800 3800 $(100.0*dt) iso $P $P $(1000.0*dt)
fix 1 all npt temp 3800 3800 0.050000000000000002776 iso $P $P $(1000.0*dt)
fix 1 all npt temp 3800 3800 0.050000000000000002776 iso 300000 $P $(1000.0*dt)
fix 1 all npt temp 3800 3800 0.050000000000000002776 iso 300000 300000 $(1000.0*dt)
fix 1 all npt temp 3800 3800 0.050000000000000002776 iso 300000 300000 0.5
dump 1 all custom 1000 1equil.bin id type x y z vx vy vz
run   10000 # report performance
Neighbor list info ...
  update every 1 steps, delay 10 steps, check yes
  max neighbors/atom: 2000, page size: 100000
  master list distance cutoff = 6
  ghost atom cutoff = 6
  binsize = 6, bins = 8 8 15
  1 neighbor lists, perpetual/occasional/extra = 1 0 0
  (1) pair flare/kk, perpetual
      attributes: full, newton on, kokkos_device
      pair build: full/bin/kk/device
      stencil: full/bin/3d
      bin: kk/device
Per MPI rank memory allocation (min/avg/max) = 15.9 | 15.9 | 15.9 Mbytes
   Step          Temp          Press           CPU            Pxx            Pyy            Pzz            Pxy            Pxz            Pyz           KinEng         PotEng         TotEng         Volume           Lx             Ly             Lz          Atoms   
         0   3800           68690.109      0              68311.667      68862.63       68896.03      -527.30309      237.49657     -596.18676      7858.5256     -4109.4047      3749.1209      167941.93      43.790145      43.790145      87.58029           16000 
      1000   3796.9587      301846.99      6.4265561      303276.5       301238.66      301025.82     -1208.7608      813.76989     -1391.6407      7852.2361      5360.7924      13213.028      156973.91      42.815316      42.815316      85.630633          16000 
      2000   3774.1849      298236.12      12.821578      298368.04      298829.35      297510.97      2091.0794      3464.7998     -2359.1233      7805.1391      5481.0074      13286.146      157234.15      42.838964      42.838964      85.677928          16000 
      3000   3775.9912      300021.71      19.217501      302253.24      301205.81      296606.07      583.3898      -2225.7091     -200.80617      7808.8747      5252.6306      13061.505      156964.62      42.814472      42.814472      85.628944          16000 
      4000   3838.2257      300192.82      25.612595      301048.55      299132.28      300397.64     -185.04319      489.50794     -4206.7816      7937.5777      5355.7373      13293.315      157116.53      42.828279      42.828279      85.656559          16000 
      5000   3784.4986      300684.91      32.006317      300092.7       300253.79      301708.25      665.35074     -170.339        2861.6605      7826.4682      5371.579       13198.047      156981.86      42.81604       42.81604       85.632079          16000 
      6000   3797.2286      302525.84      38.400832      301814.93      303202.88      302559.72      2409.0741      2092.1861      892.9837       7852.7942      5358.0902      13210.884      156862.69      42.805203      42.805203      85.610405          16000 
      7000   3803.711       302983.24      44.795033      303770.43      303416.4       301762.89      606.78285      1847.2451     -1155.6799      7866.2001      5418.764       13284.964      156872.67      42.80611       42.80611       85.61222           16000 
      8000   3771.6285      302526.08      51.188525      301290.15      302284.16      304003.93     -749.13868      1883.7281      151.79181      7799.8524      5354.6563      13154.509      156772.64      42.79701       42.79701       85.59402           16000 
      9000   3802.5951      303036.83      57.582167      301814.04      303206.99      304089.47      1720.9178     -3386.0557     -1917.0631      7863.8924      5454.2769      13318.169      156878.57      42.806647      42.806647      85.613294          16000 
     10000   3842.3101      305150.06      63.974028      305308.76      305456.53      304684.89     -2152.5394     -566.36864      586.70371      7946.0244      5290.3681      13236.393      156698.88      42.790297      42.790297      85.580593          16000 
Loop time of 63.974 on 8 procs for 10000 steps with 16000 atoms

Performance: 6.753 ns/day, 3.554 hours/ns, 156.313 timesteps/s
61.2% CPU use with 1 MPI tasks x 8 OpenMP threads

MPI task timing breakdown:
Section |  min time  |  avg time  |  max time  |%varavg| %total
---------------------------------------------------------------
Pair    | 60.998     | 60.998     | 60.998     |   0.0 | 95.35
Neigh   | 0.096875   | 0.096875   | 0.096875   |   0.0 |  0.15
Comm    | 0.36453    | 0.36453    | 0.36453    |   0.0 |  0.57
Output  | 0.013124   | 0.013124   | 0.013124   |   0.0 |  0.02
Modify  | 2.2522     | 2.2522     | 2.2522     |   0.0 |  3.52
Other   |            | 0.2492     |            |       |  0.39

Nlocal:          16000 ave       16000 max       16000 min
Histogram: 1 0 0 0 0 0 0 0 0 0
Nghost:          13635 ave       13635 max       13635 min
Histogram: 1 0 0 0 0 0 0 0 0 0
Neighs:              0 ave           0 max           0 min
Histogram: 1 0 0 0 0 0 0 0 0 0
FullNghs:  1.47341e+06 ave 1.47341e+06 max 1.47341e+06 min
Histogram: 1 0 0 0 0 0 0 0 0 0

Total # of neighbors = 1473412
Ave neighs/atom = 92.08825
Neighbor list builds = 305
Dangerous builds = 0
run  990000
Per MPI rank memory allocation (min/avg/max) = 16.08 | 16.08 | 16.08 Mbytes
   Step          Temp          Press           CPU            Pxx            Pyy            Pzz            Pxy            Pxz            Pyz           KinEng         PotEng         TotEng         Volume           Lx             Ly             Lz          Atoms   
     10000   3842.3101      305150.06      0              305308.76      305456.53      304684.89     -2152.5394     -566.36864      586.70371      7946.0244      5290.3681      13236.393      156698.88      42.790297      42.790297      85.580593          16000 
     11000   3842.9049      303559.99      6.3927768      303531.26      303258.24      303890.49      303.60904     -486.60037      1872.8418      7947.2544      5327.9867      13275.241      156755.47      42.795448      42.795448      85.590895          16000 
     12000   3857.9312      303651.12      12.787656      303486.98      304278.49      303187.89     -568.64426      3016.0623     -966.69331      7978.3292      5343.4333      13321.763      156874.11      42.806241      42.806241      85.612483          16000 
     13000   3788.5031      302269.59      19.180084      300417.23      302285.89      304105.63     -820.7373       1112.2304      2935.9477      7834.7496      5337.0385      13171.788      156798.29      42.799344      42.799344      85.598688          16000 
     14000   3782.8615      304055.9       25.572712      305029.35      302588.39      304549.96     -924.42389     -1291.1504     -337.89526      7823.0826      5506.2538      13329.336      156890.9       42.807768      42.807768      85.615536          16000 
     15000   3799.3604      308120.78      31.966372      307570.94      307138.73      309652.67      781.70327      1591.6981     -1568.7163      7857.2029      5377.183       13234.386      156588.63      42.780259      42.780259      85.560519          16000 
     16000   3860.7176      303074.88      38.358736      302368.05      303026.02      303830.57     -1948.2499     -448.2224      -223.59125      7984.0915      5352.9964      13337.088      156903.55      42.808918      42.808918      85.617837          16000 
     17000   3787.6171      303866.55      44.751945      303289.29      305437.98      302872.37      1294.9241     -2574.8911      546.8062       7832.9174      5377.7811      13210.698      156796.34      42.799166      42.799166      85.598332          16000 
     18000   3834.8659      301712.2       51.145589      301344.53      303000.89      300791.2      -373.93941     -587.74628      2091.5711      7930.6294      5415.2325      13345.862      157004.18      42.818069      42.818069      85.636138          16000 
     19000   3762.0366      302230.65      57.538525      303580.68      301100.81      302010.45      1293.3562      1012.9534      534.94984      7780.0161      5381.2839      13161.3        156777.02      42.797408      42.797408      85.594817          16000 
     20000   3812.9335      304258.63      63.931622      304630.75      304980.11      303165.02     -346.1509       4146.3213     -541.76775      7885.2726      5570.0414      13455.314      156888.94      42.80759       42.80759       85.61518           16000 
     21000   3801.0952      304305.1       70.324545      303700.82      306821.26      302393.22      2030.7918      4753.7872      12.880086      7860.7906      5430.8789      13291.669      156810.99      42.800499      42.800499      85.600998          16000 
     22000   3770.7161      304316.28      76.718161      305175.54      305618.96      302154.33      51.59065      -585.35515      2583.2197      7797.9656      5444.9771      13242.943      156763.02      42.796135      42.796135      85.592269          16000 
     23000   3798.6462      305193.82      83.11254       304147.95      304254.41      307179.1      -436.67097     -1910.4533     -1399.6183      7855.7259      5431.5434      13287.269      156735.39      42.79362       42.79362       85.587239          16000 
     24000   3813.3219      307641.02      89.504813      306904.44      307845.97      308172.65      127.1072       1006.2665     -1357.4         7886.0758      5378.359       13264.435      156602.45      42.781517      42.781517      85.563034          16000 
     25000   3800.0471      303158.15      95.903702      301952.54      302608.16      304913.76      3993.4796     -1979.0662      50.109946      7858.6231      5410.7721      13269.395      156816.73      42.801021      42.801021      85.602043          16000 
     26000   3819.6539      303164.05      102.30084      301952.18      301709.18      305830.78     -226.48593      1350.3147     -739.07562      7899.1705      5360.9533      13260.124      156875.52      42.806369      42.806369      85.612739          16000 
     27000   3781.7046      302170.04      108.69615      304167.99      300681.79      301660.32      2322.7872      3599.4644      1795.6284      7820.6901      5361.0923      13181.782      156940.98      42.812323      42.812323      85.624646          16000 
     28000   3791.9003      301083.38      115.102        303069.46      300972.28      299208.38      218.36854      1548.8985      2679.8642      7841.7753      5405.4751      13247.25       156985.67      42.816386      42.816386      85.632771          16000 
     29000   3824.8519      302762.04      121.42204      302311.9       303665.04      302309.17     -2133.1667      73.669148     -1381.3305      7909.9201      5383.2873      13293.207      156926.3       42.810988      42.810988      85.621976          16000 
     30000   3753.5036      304409.44      127.74097      304965.93      304592.18      303670.21     -2118.0969      601.13973      640.37106      7762.3695      5339.3883      13101.758      156786.77      42.798295      42.798295      85.596591          16000 
     31000   3778.0869      301572.1       134.06297      300925.63      303155.4       300635.25      293.77878      1014.1139     -2418.3825      7813.2087      5369.5339      13182.743      156987.29      42.816533      42.816533      85.633066          16000 
     32000   3814.489       301541.25      140.38347      302084.32      302241.99      300297.44     -1139.2643     -1781.5237      771.95231      7888.4894      5421.1543      13309.644      157067.79      42.82385       42.82385       85.6477            16000 
     33000   3798.2955      306371.61      146.70601      305923.44      306474.26      306717.12     -1347.5129      466.36887     -368.28848      7855.0007      5336.4771      13191.478      156649.47      42.785799      42.785799      85.571597          16000 
     34000   3796.4699      301896.15      153.02638      303993.78      300909.06      300785.61     -1586.9277     -681.7684       563.69811      7851.2252      5477.2318      13328.457      156961.38      42.814178      42.814178      85.628355          16000 
     35000   3790.4487      300025.19      159.34583      298778.27      299428.49      301868.8       1331.5727      847.19037     -1310.2886      7838.7732      5410.2638      13249.037      157024.92      42.819954      42.819954      85.639908          16000 
     36000   3799.8234      301462.83      165.66604      299202.18      302155.88      303030.44      152.0144      -857.3765      -1031.161       7858.1603      5241.6392      13099.8        156874.71      42.806295      42.806295      85.612591          16000 
     37000   3762.6076      302200.49      171.98646      300564.04      302182.14      303855.29      810.60462     -876.49252      755.06459      7781.1969      5380.8192      13162.016      156881.04      42.806871      42.806871      85.613742          16000 
     38000   3800.4704      299717.04      178.30675      300352.31      299839.19      298959.62      446.79642      1171.3323     -1674.2046      7859.4985      5391.6556      13251.154      156934.82      42.811763      42.811763      85.623525          16000 
     39000   3808.4963      301932.11      184.629        303721         302268.24      299807.1       1200.8762     -3884.4567      1472.8694      7876.0963      5378.5581      13254.654      156853.99      42.804411      42.804411      85.608821          16000 
     40000   3789.2716      304812.15      190.94984      306268.29      305063.14      303105.02     -607.64788      936.55007     -1016.3897      7836.339       5403.8315      13240.171      156712.28      42.791516      42.791516      85.583032          16000 
     41000   3826.2666      303502.33      197.27111      304354.08      304820.52      301332.41      1385.2955     -458.75234     -518.63506      7912.8458      5392.6896      13305.535      156804.32      42.799892      42.799892      85.599785          16000 
     42000   3800.6504      303944.46      203.59306      303809.14      304351.43      303672.83      1634.0848     -1015.2523      63.458168      7859.8706      5395.078       13254.949      156729.56      42.79309       42.79309       85.586179          16000 
     43000   3829.8148      305213.37      209.91343      307065.76      304650.01      303924.34      3687.5585      2145.5989     -307.31496      7920.1836      5383.9279      13304.111      156700.02      42.790401      42.790401      85.580801          16000 
     44000   3791.9642      304840.79      216.23694      304368.21      305143.96      305010.2      -862.83212     -297.6501       420.19341      7841.9073      5449.0549      13290.962      156748.14      42.79478       42.79478       85.58956           16000 
     45000   3789.2011      303046.81      222.55867      301915.61      303158.89      304065.94     -420.55916     -2046.2947     -600.77364      7836.1932      5430.5254      13266.719      156898.01      42.808415      42.808415      85.61683           16000 
     46000   3821.8382      300805.6       228.87915      302232.2       298959.44      301225.17      24.187943     -901.1479       1587.7925      7903.6878      5274.3568      13178.045      156928.81      42.811216      42.811216      85.622432          16000 
     47000   3785.776       300992.48      235.19931      301565.01      300564.95      300847.47     -3151.3322      1148.9211      150.52132      7829.1099      5323.8582      13152.968      156983.16      42.816158      42.816158      85.632316          16000 
     48000   3836.4987      300120.63      241.51975      301743.32      297844.77      300773.79     -2607.0801      1684.2416     -2694.6078      7934.0062      5342.684       13276.69       156983.24      42.816165      42.816165      85.63233           16000 
     49000   3792.7933      304929.79      247.83745      304962.45      305126.8       304700.12      1374.7834     -1161.1719     -1206.0247      7843.622       5318.1997      13161.822      156668.88      42.787566      42.787566      85.575131          16000 
     50000   3830.8224      307517.84      254.15655      307722.78      307687.45      307143.29     -1936.148       1080.8824     -911.29006      7922.2674      5403.5861      13325.853      156685.41      42.78907       42.78907       85.578141          16000 
     51000   3786.1483      305614.95      260.47422      306946.66      302610.81      307287.38      641.39179     -227.48752     -2224.7288      7829.8799      5364.3249      13194.205      156674.89      42.788113      42.788113      85.576225          16000 
     52000   3797.5206      304062.61      266.79355      304158.61      303747.3       304281.92      1461.3129     -1985.394      -86.534082      7853.3982      5447.1539      13300.552      156791.82      42.798755      42.798755      85.597511          16000 
     53000   3778.7641      301931.34      273.11207      302198.65      303204.47      300390.88      1916.3618     -910.35403      2112.0021      7814.6092      5425.0408      13239.65       156863.16      42.805245      42.805245      85.61049           16000 
     54000   3800.9551      301600.45      279.43196      299480.87      301893.43      303427.04      225.11859     -428.85258     -485.63716      7860.5007      5287.6247      13148.125      156869.48      42.80582       42.80582       85.61164           16000 
     55000   3821.674       300412.25      285.7526       300903.7       298445.38      301887.67     -1334.7572      3410.7372     -30.504519      7903.3481      5360.4501      13263.798      157029.65      42.820384      42.820384      85.640767          16000 
     56000   3757.5986      302581         292.07808      303288.14      304445.95      300008.91     -926.87233     -109.84         883.60099      7770.8382      5319.9466      13090.785      156837.26      42.802889      42.802889      85.605778          16000 
     57000   3832.3865      297262.62      298.40217      297759.52      296659         297369.33     -1261.3904      1897.1216      645.00746      7925.502       5338.931       13264.433      157083.13      42.825244      42.825244      85.650489          16000 
     58000   3749.4077      296824.63      304.72524      295636.95      297958.98      296877.96      850.62383      2204.6521     -540.72893      7753.899       5341.9381      13095.837      157066.11      42.823698      42.823698      85.647395          16000 
     59000   3805.5968      294497.05      311.04911      296074.96      293886.01      293530.17      776.28793      39.219864      1290.3103      7870.1         5385.0432      13255.143      157315.26      42.846329      42.846329      85.692658          16000 
     60000   3776.6304      297483.13      317.36937      296687.46      297474.91      298287.02     -1345.7707     -887.81184      2148.913       7810.1965      5349.4539      13159.65       157104.52      42.827188      42.827188      85.654376          16000 
     61000   3837.6372      299078.08      323.69116      300321.07      298092.32      298820.86      749.12319     -1097.539      -233.27803      7936.3606      5330.2627      13266.623      157093.71      42.826206      42.826206      85.652411          16000 
     62000   3808.383       300325.23      330.01428      301443.62      301549.74      297982.34      286.56692      197.25135     -1016.3197      7875.862       5281.2925      13157.154      156907.24      42.809255      42.809255      85.618509          16000 
     63000   3798.8616      298580.04      336.34038      298106.73      298165.26      299468.15     -2658.5693      693.60718     -929.89049      7856.1714      5357.3404      13213.512      157070.24      42.824073      42.824073      85.648146          16000 
     64000   3763.8952      302502.93      342.66638      302876.87      303626.1       301005.81      40.767149     -931.74055      1223.9225      7783.8598      5319.5379      13103.398      156806.34      42.800076      42.800076      85.600152          16000 
     65000   3806.6629      303645.82      348.98991      304120.63      303244.09      303572.72     -267.32279     -565.25368     -703.86131      7872.3046      5373.8267      13246.131      156752.4       42.795168      42.795168      85.590335          16000 
     66000   3774.8151      303191.4       355.31322      303658.15      303112.27      302803.76      326.80121      1205.8374     -51.286185      7806.4425      5201.4495      13007.892      156711.41      42.791438      42.791438      85.582875          16000 
     67000   3802.3904      300734.7       361.63515      301905.59      299401.51      300896.99      523.03943      1769.6392     -2315.3869      7863.469       5368.8029      13232.272      156951.82      42.813308      42.813308      85.626616          16000 
     68000   3784.9032      299979.08      367.95881      298593.1       299089.56      302254.56      1774.3872      37.074167      2752.9589      7827.3049      5401.1184      13228.423      157062.37      42.823358      42.823358      85.646716          16000 
     69000   3748.0687      299848.12      374.28012      299015.35      300560.08      299968.92      755.81761     -219.71878      1355.238       7751.13        5319.194       13070.324      156993.42      42.81709       42.81709       85.634181          16000 
     70000   3812.6644      295368.08      380.6008       295253.63      295619.35      295231.27      2144.2479     -1.9142507     -1164.3183      7884.7161      5307.5086      13192.225      157317.33      42.846517      42.846517      85.693035          16000 
     71000   3793.6752      293953.73      386.92227      292201.75      295296.11      294363.34     -232.11842     -1824.2047      3256.6626      7845.4458      5273.9319      13119.378      157305.84      42.845474      42.845474      85.690947          16000 
     72000   3794.66        298333.91      393.24195      299202.04      298231.64      297568.06     -2478.4516     -472.5309      -2991.1925      7847.4823      5321.1007      13168.583      157115.9       42.828222      42.828222      85.656444          16000 
     73000   3793.0401      297985.79      399.55991      298414.74      297708.5       297834.13      686.97833      768.11566     -2540.144       7844.1324      5261.4343      13105.567      157018.5       42.81937       42.81937       85.63874           16000 
     74000   3753.6765      298998.56      405.88314      296669.15      300709.26      299617.27      4629.0593      370.4242       2010.721       7762.7271      5388.5639      13151.291      157116.19      42.828249      42.828249      85.656497          16000 
     75000   3814.3125      300126.16      412.20751      301750         298884.14      299744.34      1155.1828      892.13218      62.811313      7888.1243      5378.2245      13266.349      157061.44      42.823273      42.823273      85.646546          16000 
     76000   3830.5359      300908.91      418.53367      300077.6       301864.65      300784.47     -179.01392     -438.06517      1174.6739      7921.6748      5301.7598      13223.435      156967.73      42.814754      42.814754      85.629509          16000 
     77000   3768.621       302230.61      424.86168      302274.95      302403.9       302012.98      78.740764      1718.8942     -2138.0059      7793.6328      5266.6797      13060.312      156824.93      42.801768      42.801768      85.603535          16000 
     78000   3818.2248      300597.85      431.18741      300170.5       301744.67      299878.39      2692.2942      835.18684      2977.9022      7896.215       5375.5049      13271.72       157010.76      42.818667      42.818667      85.637333          16000 
     79000   3763.7331      302976.69      437.51654      303600.27      302673.14      302656.65      1730.7777     -552.24156     -219.90161      7783.5245      5278.9949      13062.519      156740.46      42.794081      42.794081      85.588163          16000 
     80000   3823.3066      301343.46      443.84322      302221.54      301157.39      300651.44      653.00559      1262.7788     -1060.7821      7906.7244      5328.6327      13235.357      156960         42.814052      42.814052      85.628104          16000 
     81000   3844.717       306169.61      450.16934      306530.16      308401.02      303577.65     -1302.8782     -836.8066      -791.77301      7951.002       5407.6101      13358.612      156602.58      42.78153       42.78153       85.563059          16000 
     82000   3783.0278      307367.77      456.49816      308670.53      307076.62      306356.16     -573.44661     -2470.696      -1133.8693      7823.4265      5497.3096      13320.736      156592.69      42.780629      42.780629      85.561258          16000 
     83000   3822.4045      302938.12      462.82643      303738.01      301867.34      303209.03      1192.6842     -1610.1847      1075.7112      7904.8588      5356.0211      13260.88       156782.05      42.797866      42.797866      85.595732          16000 
     84000   3797.7662      302534.76      469.16109      302057.88      302522.38      303024.01      3359.4979      1038.2923      2595.5245      7853.906       5304.2972      13158.203      156844.69      42.803565      42.803565      85.607131          16000 
     85000   3805.3024      303578.63      475.49287      303065.36      303491.19      304179.32      1335.5416     -593.38408     -1839.3723      7869.4912      5387.4765      13256.968      156916.13      42.810063      42.810063      85.620126          16000 
     86000   3812.6687      302175.55      481.82509      300241.04      303176.49      303109.11     -2232.2525     -713.4894       654.30897      7884.7248      5344.0639      13228.789      156906.73      42.809208      42.809208      85.618415          16000 
     87000   3795.0662      303996.68      488.15629      306628.94      301609.05      303752.06     -23.485111      3383.6295      864.703        7848.3223      5371.1928      13219.515      156744.06      42.794409      42.794409      85.588818          16000 
     88000   3809.3457      302276.51      494.49169      301059.56      304428.98      301340.98      3584.511       972.93136      425.95253      7877.8528      5329.5414      13207.394      156859.1       42.804876      42.804876      85.609752          16000 
     89000   3832.8847      303400.27      500.82644      304043.46      304438.47      301718.89     -1641.3806      1592.725      -1434.1443      7926.5323      5334.1113      13260.644      156828.62      42.802103      42.802103      85.604206          16000 
     90000   3803.5225      301736.41      507.16342      303962.44      301295.57      299951.23     -53.252265     -160.85905      2582.295       7865.8102      5411.2667      13277.077      156924.32      42.810808      42.810808      85.621615          16000 
     91000   3826.5006      302206.15      513.50072      302611.43      302011.64      301995.39      795.23137     -371.69694      3985.9021      7913.3298      5348.8423      13262.172      156925.95      42.810956      42.810956      85.621912          16000 
     92000   3841.643       304885.07      519.83852      306043.51      304419.1       304192.59     -457.44591      1156.4724     -537.87518      7944.6447      5373.541       13318.186      156796.56      42.799186      42.799186      85.598372          16000 
     93000   3779.4339      306757.13      526.17564      308603.91      307146.31      304521.17      513.61583     -2339.6102     -2646.3299      7815.9943      5416.0603      13232.055      156653.29      42.786147      42.786147      85.572293          16000 
     94000   3782.2782      302039.71      532.50988      303366.3       301284.88      301467.95      1073.1554     -304.86588      97.756532      7821.8763      5448.6931      13270.569      156861.87      42.805128      42.805128      85.610256          16000 
     95000   3786.9717      302931.25      538.84155      302610.01      302140.01      304043.73     -21.67056      -2620.7879     -1457.5765      7831.5826      5350.7434      13182.326      156792.6       42.798826      42.798826      85.597652          16000 
     96000   3796.0303      303171.69      545.17428      302611.81      302302.49      304600.77     -1692.1763      1549.9525      1975.1726      7850.3162      5424.1011      13274.417      156819.6       42.801283      42.801283      85.602566          16000 
     97000   3774.4069      303288.96      551.5115       302243.89      304427.2       303195.77      555.71912     -1740.1944     -49.876186      7805.5984      5422.9176      13228.516      156762.03      42.796044      42.796044      85.592088          16000 
     98000   3805.9859      302705.15      557.8521       301821.39      303104.36      303189.7      -2230.2176     -469.7295       106.16672      7870.9047      5391.7749      13262.68       156886.91      42.807406      42.807406      85.614811          16000 
     99000   3786.5113      302089.2       564.1912       301640.29      301814.39      302812.93      1708.945      -2225.1603     -2159.9666      7830.6305      5421.5369      13252.167      156930.63      42.811381      42.811381      85.622763          16000 
    100000   3785.3884      302101.07      570.53855      303064.49      300821.64      302417.08     -3330.0782     -1049.8962      553.08155      7828.3084      5345.7738      13174.082      156845.09      42.803602      42.803602      85.607203          16000 
    101000   3796.2493      301398.04      576.88216      303381.11      300067.65      300745.35     -301.10654     -1110.8381     -390.64873      7850.7691      5324.276       13175.045      156911.79      42.809668      42.809668      85.619336          16000 
    102000   3833.9104      304132.39      583.22738      305725.22      301478.44      305193.5       3379.9474      234.87516     -2066.041       7928.6535      5453.4522      13382.106      156827.63      42.802013      42.802013      85.604027          16000 
    103000   3802.4959      301444.18      589.57         300234.31      301270.35      302827.89      830.36574      2048.0776     -682.65994      7863.6872      5346.7671      13210.454      156930.33      42.811354      42.811354      85.622707          16000 
    104000   3814.5385      300171.26      595.91734      299235.85      299487.61      301790.33     -377.52362      449.1844      -3461.7936      7888.5917      5376.1081      13264.7        157122.5       42.828822      42.828822      85.657645          16000 
    105000   3823.0129      301151.55      602.26306      302231.17      300689.14      300534.34      2300.5375     -258.34613      370.31164      7906.1171      5333.9552      13240.072      156971.48      42.815096      42.815096      85.630191          16000 
    106000   3818.842       299658.69      608.60478      301380.36      298614.01      298981.7       1716.5489     -2507.1728      713.20406      7897.4915      5294.8491      13192.341      157081.57      42.825102      42.825102      85.650205          16000 
    107000   3791.355       300478.5       614.93372      300162.35      300629.62      300643.53      1429.819      -53.04715       81.061499      7840.6475      5331.5668      13172.214      156932.24      42.811527      42.811527      85.623055          16000 
    108000   3808.9172      300415.31      621.25924      300875.31      301152.32      299218.3       1849.8808     -348.0844       1015.7121      7876.9668      5371           13247.967      156972.62      42.8152        42.8152        85.630399          16000 
    109000   3782.3117      303285.6       627.58171      306027.94      301129.99      302698.87      883.3848       32.977113      1546.5972      7821.9456      5377.1053      13199.051      156719.34      42.79216       42.79216       85.584319          16000 
    110000   3844.0773      303672.37      633.90298      304102.66      302755.55      304158.9       1052.6647     -2335.2592     -1715.3317      7949.6789      5341.237       13290.916      156916.19      42.810068      42.810068      85.620136          16000 
    111000   3829.7436      301940.79      640.22142      302276.51      303698.28      299847.59      131.81365     -2255.9452     -2809.9613      7920.0364      5390.3332      13310.37       156972.95      42.81523       42.81523       85.630459          16000 
    112000   3796.0468      301302.15      646.53596      302578.16      299163.75      302164.53     -3971.5264      454.75577      3310.2753      7850.3503      5320.2462      13170.596      156931.19      42.811432      42.811432      85.622865          16000 
    113000   3811.2491      300112.42      652.85223      302386.14      300537.17      297413.95      1589.5298      2474.1937     -1929.3441      7881.7892      5417.0165      13298.806      157091.56      42.82601       42.82601       85.652021          16000 
    114000   3803.4925      303132.66      659.17454      304347.88      303078.52      301971.57     -869.34971     -2975.6479     -1673.1204      7865.7481      5325.7957      13191.544      156834.57      42.802644      42.802644      85.605289          16000 
    115000   3788.4224      305309.71      665.49598      305762.64      302951.1       307215.38      4037.6771     -1068.7049     -2833.8013      7834.5827      5452.1412      13286.724      156674.78      42.788103      42.788103      85.576207          16000 
    116000   3820.0503      305276.96      671.81581      306302.45      306652.09      302876.34      2335.2549      2524.3762      507.5166       7899.9904      5442.3085      13342.299      156715.08      42.791771      42.791771      85.583542          16000 
    117000   3799.3106      304139.43      678.13447      305762.91      303132.12      303523.26      638.75974     -2336.8514      935.76137      7857.0999      5449.252       13306.352      156813.33      42.800712      42.800712      85.601425          16000 
    118000   3767.1858      303804.52      684.45601      302738.39      305335.09      303340.08     -2249.8372     -1868.7415      568.62155      7790.6649      5364.4202      13155.085      156856.9       42.804676      42.804676      85.609351          16000 
    119000   3819.0104      300633.66      690.77401      302751.49      297870.39      301279.11      666.98695     -1129.0125      495.60846      7897.8397      5308.5494      13206.389      156980.28      42.815896      42.815896      85.631792          16000 
    120000   3789.1426      297779.43      697.09294      295541.4       299836.01      297960.89     -1021.4593     -1511.839      -2206.9087      7836.0721      5354.9329      13191.005      157162.06      42.832416      42.832416      85.664832          16000 
    121000   3742.4949      300154.7       703.41086      300317.09      299163.53      300983.48     -76.098872      2250.2488      114.85219      7739.6033      5369.3635      13108.967      156880.43      42.806816      42.806816      85.613632          16000 
    122000   3819.3463      298946.72      709.72919      299127.71      298924.8       298787.64     -1890.9894      1246.145       991.95915      7898.5344      5310.9063      13209.441      157027.79      42.820215      42.820215      85.64043           16000 
    123000   3798.7561      298287.69      716.04858      300505.62      296171.35      298186.09      2812.6005     -2575.7557     -964.35863      7855.9533      5333.4594      13189.413      157133.2       42.829794      42.829794      85.659589          16000 
    124000   3804.674       297597.73      722.36718      297263.91      296734.39      298794.89     -1707.2173      934.08428      480.11674      7868.1916      5309.2145      13177.406      157097.23      42.826526      42.826526      85.653052          16000 
    125000   3810.3805      297383.07      728.68652      295234.98      298258.31      298655.91      42.235714      3338.3445     -1951.8889      7879.9929      5372.4436      13252.437      157287.4       42.8438        42.8438        85.6876            16000 
    126000   3779.6765      298202.21      735.01164      298958.93      297894.79      297752.9      -512.19492     -359.66675      2490.6808      7816.496       5248.4984      13064.994      157018.05      42.81933       42.81933       85.638659          16000 
    127000   3813.9506      297081.24      741.34031      297441.69      296485.88      297316.15      2647.4013     -3986.7183     -4124.7076      7887.3759      5325.3559      13212.732      157201.41      42.835991      42.835991      85.671982          16000 
    128000   3785.1367      299136.15      747.6721       302173.83      297748.35      297486.27      1104.6407      586.3295      -2251.7211      7827.7879      5364.3905      13192.178      157085.14      42.825427      42.825427      85.650854          16000 
    129000   3762.7317      297514.74      754.00276      298005.09      298903.05      295636.07     -2467.5173     -1564.9762      2801.61        7781.4535      5256.0004      13037.454      157063.37      42.823449      42.823449      85.646898          16000 
    130000   3797.5881      295865.15      760.33292      295817.4       295754.32      296023.72      2776.9008     -157.70813      2139.9842      7853.5377      5291.4949      13145.033      157305.76      42.845466      42.845466      85.690933          16000 
    131000   3795.0519      291804.06      766.67174      293358.32      290012.46      292041.41      18.395773      2150.2291      900.96254      7848.2929      5239.685       13087.978      157417.52      42.855611      42.855611      85.711222          16000 
    132000   3766.6156      295413.74      773.01228      295971.03      295582.61      294687.58     -126.63434      362.89493     -1892.8783      7789.4857      5265.9538      13055.439      157265.29      42.841792      42.841792      85.683584          16000 
    133000   3791.069       297006.48      779.35269      298039.74      295347.03      297632.68     -1085.6058      159.02036      606.45087      7840.0561      5372.3375      13212.394      157190.69      42.835017      42.835017      85.670034          16000 
    134000   3803.2305      298792.7       785.69155      299377.95      298950.23      298049.92      2417.5376     -68.260638     -1036.8249      7865.2064      5237.78        13102.986      157035.92      42.820953      42.820953      85.641907          16000 
    135000   3787.6855      297329.92      792.02991      296781.12      297941.16      297267.48      1228.0907      60.280714      3202.3961      7833.0589      5299.6177      13132.677      157183.08      42.834326      42.834326      85.668652          16000 
    136000   3788.7935      294233.62      798.37312      292430.11      296388.91      293881.85      1990.3185     -967.6857      -833.98723      7835.3501      5338.5901      13173.94       157303.22      42.845236      42.845236      85.690472          16000 
    137000   3805.8497      294495.5       804.71483      295272.16      293161.44      295052.91      1633.8135     -3403.4255      954.82363      7870.623       5309.7824      13180.405      157292.54      42.844266      42.844266      85.688532          16000 
    138000   3780.4957      299802.06      811.05374      299626.29      300165.13      299614.78      654.57114      576.24414     -124.78673      7818.1901      5360.1907      13178.381      157012.99      42.818869      42.818869      85.637738          16000 
    139000   3790.48        302064.38      817.3992       302203.37      300311.19      303678.57      1091.236       698.74094     -1061.5473      7838.8379      5366.6626      13205.5        156891.93      42.807862      42.807862      85.615724          16000 
    140000   3788.5882      305133.11      823.7424       306312.1       303881.6       305205.65     -1289.1087      2956.6716      199.35108      7834.9256      5395.3101      13230.236      156708.37      42.79116       42.79116       85.58232           16000 
    141000   3787.3279      302869.44      830.08305      303236.4       302635.91      302736.01     -2404.2255     -893.38961      649.27228      7832.3193      5460.7705      13293.09       156850.71      42.804112      42.804112      85.608225          16000 
    142000   3803.9222      301850.15      836.42475      303511.5       300853.57      301185.39      1149.5488     -3683.5703      112.02764      7866.637       5340.3013      13206.938      156838.28      42.802982      42.802982      85.605964          16000 
    143000   3739.0448      303042.88      842.76626      302580.86      302975.88      303571.9      -1043.5991      82.071634      424.72685      7732.4682      5433.5358      13166.004      156799.93      42.799493      42.799493      85.598987          16000 
    144000   3777.2031      301056.45      849.11115      300716.18      300254.98      302198.18     -2216.5645      3453.3511      2351.421       7811.3809      5414.1853      13225.566      156993.56      42.817103      42.817103      85.634205          16000 
    145000   3766.9909      302166.43      855.45891      301235.6       301910.82      303352.86     -35.571952     -767.17604     -1792.041       7790.2618      5335.6151      13125.877      156791.85      42.798757      42.798757      85.597515          16000 
    146000   3827.4101      302482.68      861.8061       300464.49      305159.51      301824.03     -3132.014       2267.3617     -2296.9765      7915.2107      5335.0933      13250.304      156841.29      42.803256      42.803256      85.606512          16000 
    147000   3783.1738      304773.51      868.15209      302977.35      306442.85      304900.33      1793.2007      1272.2663      428.5197       7823.7284      5357.1368      13180.865      156711.48      42.791444      42.791444      85.582888          16000 
    148000   3826.1491      305191.72      874.50087      305952.63      304231.42      305391.12     -1091.3366     -1068.1911      2814.5599      7912.6029      5435.3887      13347.992      156795.65      42.799103      42.799103      85.598206          16000 
    149000   3778.8281      303791.06      880.84894      303398.47      304057.68      303917.04      574.29536     -2105.1776      2759.636       7814.7414      5356.4534      13171.195      156797.11      42.799237      42.799237      85.598473          16000 
    150000   3828.0215      301801.61      887.19162      300341.2       302856.37      302207.25      2839.0147     -819.33405     -3240.1424      7916.4749      5395.9291      13312.404      156897.1       42.808332      42.808332      85.616664          16000 
    151000   3762.3556      307438.08      893.53495      306115.75      307085.38      309113.11     -2127.1836      3633.249      -429.25663      7780.6758      5440.3679      13221.044      156504.5       42.772597      42.772597      85.545193          16000 
    152000   3795.2282      304250.1       899.88338      305418.13      303346.06      303986.12      519.80645     -2213.0597     -1206.07        7848.6575      5415.411       13264.068      156794.03      42.798956      42.798956      85.597912          16000 
    153000   3779.6912      303729.65      906.2289       301149.27      304358.16      305681.53      851.58971      687.99594      2034.5692      7816.5264      5263.9358      13080.462      156674.49      42.788076      42.788076      85.576153          16000 
    154000   3810.3919      304767.12      912.57298      303369.24      305547.48      305384.65     -1919.637       2169.59        1212.2979      7880.0165      5453.4657      13333.482      156785.21      42.798154      42.798154      85.596308          16000 
    155000   3786.8443      303791.52      918.91591      302831.68      303396.73      305146.17     -1468.5337      621.31833      971.12925      7831.3191      5490.655       13321.974      156741.91      42.794214      42.794214      85.588427          16000 
    156000   3835.1992      302014.5       925.26295      304095.38      300963.87      300984.27     -465.07915     -109.89005      840.41388      7931.3188      5428.9362      13360.255      156893.36      42.807992      42.807992      85.615983          16000 
    157000   3813.3012      304259.67      931.6088       304789.38      302250.19      305739.43      358.36666     -1088.5207     -932.36245      7886.0329      5364.5728      13250.606      156766.92      42.796489      42.796489      85.592978          16000 
    158000   3772.8999      302544.98      937.95492      303762.23      302095.14      301777.57      1629.4835      1309.2788      451.96918      7802.4817      5408.5476      13211.029      156728.17      42.792962      42.792962      85.585925          16000 
    159000   3775.0468      300955.68      944.30109      301967.98      300929.08      299969.99     -1658.2697     -1513.7013     -2542.4553      7806.9216      5385.7481      13192.67       156809.24      42.80034       42.80034       85.60068           16000 
    160000   3769.3063      300936.44      950.64693      300806         302639.5       299363.83     -1490.1022     -4028.6536     -2291.5922      7795.05        5285.2279      13080.278      156789.64      42.798556      42.798556      85.597112          16000 
    161000   3804.503       299471.07      956.99351      299407.37      299616.7       299389.13     -1044.4205      1876.3414     -1258.3441      7867.8379      5355.0612      13222.899      157006.12      42.818245      42.818245      85.636489          16000 
    162000   3783.7344      301090.88      963.33496      298970.21      302796.05      301506.38      26.062086     -1456.3024      2942.2699      7824.8877      5394.2954      13219.183      156919.74      42.810391      42.810391      85.620782          16000 
    163000   3734.1482      299551.6       969.68332      298547.96      299922.29      300184.56      69.931699     -2397.5401      300.04123      7722.3418      5259.4326      12981.774      156951.92      42.813317      42.813317      85.626634          16000 
    164000   3810.1545      298927.19      976.02949      297964.62      299220.86      299596.09     -1310.4378     -3470.767       3667.6389      7879.5254      5337.1787      13216.704      157103.04      42.827054      42.827054      85.654108          16000 
    165000   3768.625       299544         982.37277      300556.96      299121.19      298953.85      1242.4242      2798.1937     -1459.919       7793.6412      5270.582       13064.223      156972.64      42.815201      42.815201      85.630402          16000 
    166000   3788.8526      299109.02      988.71804      298267.19      299175.97      299883.9      -2324.7911      1111.8825      568.66248      7835.4725      5293.7864      13129.259      157059.6       42.823106      42.823106      85.646212          16000 
    167000   3793.5733      296440.41      995.06313      296406.01      296608.76      296306.45      107.4017      -745.42052      2020.8064      7845.2349      5296.1355      13141.37       157151.33      42.831441      42.831441      85.662882          16000 
    168000   3833.473       299056.53      1001.4132      300405.71      298386.13      298377.76      1618.6751      797.08726      1623.0659      7927.7488      5379.2098      13306.959      157117.35      42.828354      42.828354      85.656708          16000 
    169000   3756.7912      301539.36      1007.7613      299056.34      302769.95      302791.8      -1361.7194     -1905.6057      1570.9053      7769.1684      5367.4385      13136.607      156966.77      42.814668      42.814668      85.629335          16000 
    170000   3811.7138      297901.47      1014.1054      296610.7       297791.8       299301.9      -1013.3041     -2463.8238     -741.67347      7882.7502      5350.4857      13233.236      157153.93      42.831678      42.831678      85.663356          16000 
    171000   3789.418       300203.97      1020.4537      298600.17      300591.07      301420.66      934.95717     -736.16996     -1050.341       7836.6417      5407.2707      13243.912      156995.2       42.817252      42.817252      85.634504          16000 
    172000   3770.8877      304400.62      1026.8007      304441.51      303464.25      305296.09      480.87891      1871.6005     -2210.2018      7798.3205      5349.4389      13147.759      156741.75      42.794199      42.794199      85.588398          16000 
    173000   3792.7016      301242.69      1033.1436      301447.29      301649.25      300631.53     -1879.8662     -1201.4838      1038.0144      7843.4322      5401.3465      13244.779      156928.09      42.81115       42.81115       85.6223            16000 
    174000   3840.5668      307626.41      1039.4858      307440.89      307454.27      307984.08     -1198.2216     -683.81824     -384.45394      7942.4192      5437.1761      13379.595      156610.1       42.782214      42.782214      85.564429          16000 
    175000   3828.0639      307492.58      1045.8331      306553.72      308424.48      307499.54     -157.96857      2837.318       504.95193      7916.5626      5443.7544      13360.317      156595.75      42.780907      42.780907      85.561814          16000 
    176000   3811.772       302395.61      1052.1789      302365.63      303129.56      301691.64     -508.00249     -365.30573      264.33939      7882.8705      5359.9165      13242.787      156877.63      42.806561      42.806561      85.613122          16000 
    177000   3824.6849      301899.07      1058.527       302550.13      303455.66      299691.43      3624.471       1921.2201      1336.5772      7909.5748      5345.5553      13255.13       156983.02      42.816145      42.816145      85.632289          16000 
    178000   3801.5763      302781.14      1064.875       301096.98      303082.64      304163.8      -1545.989      -1456.5688      609.29922      7861.7855      5381.1834      13242.969      156825.18      42.80179       42.80179       85.60358           16000 
    179000   3797.7731      302620.05      1071.2177      305521.02      303707.79      298631.35     -277.34753     -3344.4796     -1451.9022      7853.9203      5396.8959      13250.816      156874.1       42.80624       42.80624       85.61248           16000 
    180000   3816.3226      304747.24      1077.5623      304442.97      304336.84      305461.9       247.00743     -2523.6879      634.23669      7892.2814      5322.4221      13214.703      156710.58      42.791361      42.791361      85.582723          16000 
    181000   3796.074       306138.05      1083.9043      303571.37      307654.37      307188.39      1275.4274      1149.9857     -803.68052      7850.4065      5387.131       13237.537      156654.13      42.786223      42.786223      85.572446          16000 
    182000   3803.2152      301511.68      1090.2495      300699.04      301474.71      302361.28     -3243.7279      330.37042     -1928.2864      7865.1748      5420.0564      13285.231      156962.41      42.814271      42.814271      85.628542          16000 
    183000   3813.5707      301396.66      1096.5964      300517.53      301413.51      302258.95      2002.8266      1837.7776     -306.22953      7886.5903      5285.1983      13171.789      156947.23      42.812891      42.812891      85.625781          16000 
    184000   3814.591       299440.54      1102.9417      298948.79      298517.26      300855.56     -492.03504     -894.23398     -44.206976      7888.7003      5432.5757      13321.276      157091.62      42.826016      42.826016      85.652033          16000 
    185000   3821.3114      300319.05      1109.2882      299326.78      300736.28      300894.1       866.90241     -667.57447     -30.021134      7902.5983      5271.1911      13173.789      156974.85      42.815402      42.815402      85.630804          16000 
    186000   3819.8242      297131.07      1115.629       298687.14      296159.59      296546.47      508.53198      65.943375     -17.356516      7899.5227      5388.1576      13287.68       157197.48      42.835633      42.835633      85.671267          16000 
    187000   3797.4471      304131.71      1121.9747      304051.77      304838.33      303505.03      2267.3802     -705.70161     -9.9665885      7853.2461      5362.0101      13215.256      156791.45      42.798721      42.798721      85.597443          16000 
    188000   3809.9211      304035.29      1128.3218      302193.14      303571.53      306341.19      1838.6128      3074.9047     -330.33183      7879.0428      5407.3121      13286.355      156809.03      42.800321      42.800321      85.600642          16000 
    189000   3850.1114      300858.09      1134.6692      298730.96      301802.62      302040.68      1870.0816      4204.4852     -2044.7231      7962.1577      5357.1414      13319.299      156972.03      42.815146      42.815146      85.630292          16000 
    190000   3778.8613      304041.03      1141.0129      303407.58      304451.96      304263.54      1585.3079      583.65682     -1096.4073      7814.81        5351.328       13166.138      156778.48      42.797542      42.797542      85.595083          16000 
    191000   3850.3836      302102.84      1147.3585      303176.17      301344.3       301788.06      2486.0063     -2099.723      -1084.9252      7962.7206      5362.9642      13325.685      156934.13      42.8117        42.8117        85.6234            16000 
    192000   3809.4819      302541.01      1153.7035      303781.27      301053.8       302787.96     -524.35032     -1638.7862     -2202.5002      7878.1345      5337.8609      13215.995      156812.8       42.800664      42.800664      85.601327          16000 
    193000   3815.8089      303531.45      1160.0489      304378.24      304234.9       301981.21     -1157.6739      1446.0176     -1930.3343      7891.219       5320.4142      13211.633      156815.43      42.800903      42.800903      85.601807          16000 
    194000   3812.7718      304065.97      1166.3917      305284.35      301507.23      305406.32      267.60351     -1060.5905      1765.046       7884.9381      5401.9997      13286.938      156824.96      42.80177       42.80177       85.60354           16000 
    195000   3785.6849      302686.81      1172.7367      303478.41      302968.02      301614.01     -2782.2454      1176.0509     -503.49596      7828.9216      5346.3503      13175.272      156824.85      42.80176       42.80176       85.60352           16000 
    196000   3821.2968      300843.32      1179.0813      302212.62      300852.18      299465.16      4309.1387     -2300.6967     -1207.707       7902.568       5386.2567      13288.825      157004.89      42.818134      42.818134      85.636267          16000 
    197000   3819.1685      302914.57      1185.4246      303093.15      302320.85      303329.71      1241.0397      3065.3687      1400.9727      7898.1666      5376.8664      13275.033      156861.85      42.805126      42.805126      85.610252          16000 
    198000   3776.0883      305214.83      1191.7651      305662.99      305920.36      304061.14      1015.59       -355.43877     -562.53176      7809.0754      5405.4269      13214.502      156748.53      42.794816      42.794816      85.589631          16000 
    199000   3830.2766      302512.94      1198.1082      303044.49      301224.31      303270.03     -446.39735     -311.49792     -2047.6929      7921.1387      5376.4652      13297.604      156915.07      42.809966      42.809966      85.619933          16000 
    200000   3824.4281      299545.24      1204.4573      298934.05      300204.7       299496.97      1032.8797     -1410.4194     -1793.2033      7909.0437      5300.1509      13209.195      157043.39      42.821632      42.821632      85.643265          16000 
    201000   3807.4939      300333.04      1210.7993      301289.17      299139.99      300569.95      610.85712     -832.72605      49.273716      7874.0233      5436.2297      13310.253      157021.91      42.81968       42.81968       85.63936           16000 
    202000   3755.3058      303916.4       1217.149       304546.16      303362.66      303840.39      1556.6639      3028.5134     -541.39326      7766.0965      5422.7201      13188.817      156731.74      42.793287      42.793287      85.586575          16000 
    203000   3803.1813      302607.54      1223.496       303065.52      301934.66      302822.46     -1802.8388     -468.31094     -371.51487      7865.1046      5397.4754      13262.58       156817.93      42.801131      42.801131      85.602262          16000 
    204000   3792.8936      300517.53      1229.8397      301394.47      300248.64      299909.49     -2447.2579      1099.7406      1856.823       7843.8293      5271.4167      13115.246      156909.77      42.809484      42.809484      85.618968          16000 
    205000   3832.3504      301606.75      1236.1886      299474.96      302197.51      303147.78      1777.8397     -73.391399     -496.87296      7925.4273      5353.0914      13278.519      156947.63      42.812927      42.812927      85.625854          16000 
    206000   3783.2765      299686.69      1242.5355      297942.65      299635.38      301482.03      807.96321     -1050.201      -1498.294       7823.9409      5226.3451      13050.286      156940.18      42.812249      42.812249      85.624499          16000 
    207000   3806.9709      301016.6       1248.8865      300292.14      302132         300625.67     -2654.4096      17.247118     -2386.111       7872.9416      5368.4353      13241.377      156911.13      42.809608      42.809608      85.619216          16000 
    208000   3782.7924      300338.67      1255.2332      300583.6       298913.35      301519.06      388.04417     -484.53913      254.89398      7822.9397      5386.2266      13209.166      157041.46      42.821457      42.821457      85.642914          16000 
    209000   3829.1127      298797.23      1261.5824      298464.72      298799.53      299127.45      3301.5867      109.88522     -1341.5584      7918.7316      5274.4849      13193.217      157012.46      42.818821      42.818821      85.637643          16000 
    210000   3811.266       300112.34      1267.9264      299112.52      301612.05      299612.45     -1507.5048     -1725.8099      613.33334      7881.824       5352.145       13233.969      156977.22      42.815618      42.815618      85.631236          16000 
    211000   3757.5221      299399.02      1274.2737      300293.62      298709.97      299193.47     -1530.5479     -969.93949      362.22791      7770.6799      5327.1659      13097.846      156905.59      42.809105      42.809105      85.618209          16000 
    212000   3801.5688      300449.67      1280.6215      300687.54      299732.58      300928.9       2008.8539      852.8951       700.47391      7861.77        5366.405       13228.175      157055.85      42.822765      42.822765      85.645531          16000 
    213000   3815.0486      303229.9       1286.9665      302088.47      303013.47      304587.76     -938.60361     -3986.7804      2712.2715      7889.6467      5387.4724      13277.119      156916.25      42.810073      42.810073      85.620147          16000 
    214000   3779.2344      304919.47      1293.3142      304088.96      305321.18      305348.25     -2402.5345     -982.31254      555.81044      7815.5818      5294.5553      13110.137      156643.91      42.785293      42.785293      85.570585          16000 
    215000   3784.7735      304786.99      1299.661       303947.19      305505.05      304908.74     -236.22215      392.77762      1472.9497      7827.0367      5397.0976      13224.134      156720.72      42.792284      42.792284      85.584569          16000 
    216000   3817.2701      305769.86      1306.0052      306376.92      304855.45      306077.22      2554.4552     -796.01293     -865.41838      7894.2409      5427.8332      13322.074      156788.97      42.798496      42.798496      85.596992          16000 
    217000   3864.7572      307324.02      1312.3555      306967.95      307029.65      307974.44      982.82865      995.979       -1773.7844      7992.4457      5370.3966      13362.842      156595.37      42.780872      42.780872      85.561745          16000 
    218000   3836.2641      303041.97      1318.6984      301721.98      302204.22      305199.72     -1609.9603     -355.88389     -2034.9495      7933.5211      5366.5048      13300.026      156847.1       42.803784      42.803784      85.607568          16000 
    219000   3863.5787      305441.26      1325.0394      304298.4       306193.35      305832.03      1598.6299     -1704.4306     -1475.0898      7990.0084      5426.1794      13416.188      156755.3       42.795432      42.795432      85.590864          16000 
    220000   3824.5244      307918.54      1331.3785      307499.37      307489.79      308766.46     -227.83658      901.82861      4230.331       7909.2429      5349.6846      13258.927      156613.48      42.782522      42.782522      85.565044          16000 
    221000   3812.0266      302465.13      1337.7228      303168.7       302065.74      302160.96     -292.69348     -2611.0976      967.52994      7883.397       5475.8808      13359.278      156892.05      42.807873      42.807873      85.615745          16000 
    222000   3817.7306      303904.81      1344.0709      301674.46      304337.84      305702.15      1240.2891     -220.31861     -1563.4251      7895.193       5354.1229      13249.316      156732.32      42.79334       42.79334       85.586681          16000 
    223000   3789.3459      304287.66      1350.4151      306086.11      302104.79      304672.09     -300.4876       503.61324      1021.9682      7836.4927      5417.2892      13253.782      156778.87      42.797576      42.797576      85.595152          16000 
    224000   3818.3604      301511.47      1356.7584      300298.58      303555.44      300680.39     -127.2326       78.439768     -347.26841      7896.4955      5357.985       13254.48       156862.63      42.805197      42.805197      85.610395          16000 
    225000   3761.2918      303562.21      1363.0993      302536.02      303702.29      304448.32      3103.0092      2519.2885     -2721.4784      7778.4758      5411.2363      13189.712      156828.48      42.80209       42.80209       85.60418           16000 
    226000   3845.5375      301102.34      1369.443       301731.32      301490.79      300084.92      1406.1406     -322.22511     -2706.4539      7952.6986      5333.0376      13285.736      156962.02      42.814235      42.814235      85.62847           16000 
    227000   3804.024       304015.75      1375.7872      304808.13      303953.5       303285.62     -1008.0088     -255.13654     -1309.8468      7866.8474      5321.9213      13188.769      156750.72      42.795015      42.795015      85.590029          16000 
    228000   3802.1038      303188.35      1382.135       303103.32      304023.48      302438.25      4524.6019      1057.9216     -187.51449      7862.8764      5405.6087      13268.485      156721.9       42.792392      42.792392      85.584784          16000 
    229000   3849.8388      303324.14      1388.4828      303095.42      303356.4       303520.6       2514.9258      2622.7959      185.11823      7961.5939      5380.7153      13342.309      156864.03      42.805324      42.805324      85.610649          16000 
    230000   3811.4381      299688.83      1394.8267      297778.17      300181.84      301106.49      1440.2625     -1516.5568     -3233.341       7882.18        5325.1529      13207.333      157007.31      42.818354      42.818354      85.636707          16000 
    231000   3777.5323      298432.1       1401.1742      298580.73      297867.7       298847.86     -990.23963     -2423.8917      3981.1303      7812.0618      5333.8997      13145.961      157146.11      42.830967      42.830967      85.661934          16000 
    232000   3774.7189      297223.07      1407.5222      295830.37      297824.72      298014.13      1341.7986      1362.8716      2909.8171      7806.2434      5348.2754      13154.519      157166.08      42.832781      42.832781      85.665562          16000 
    233000   3783.7554      293820.13      1413.8641      295449.66      292565.29      293445.43      140.49584      2652.5272     -119.55336      7824.9312      5358.8251      13183.756      157420.28      42.855861      42.855861      85.711722          16000 
    234000   3772.5594      298602.39      1420.211       299080.34      299135.76      297591.07      2113.7945     -1629.6613     -1582.2404      7801.7775      5314.4058      13116.183      157117.44      42.828362      42.828362      85.656724          16000 
    235000   3767.068       299120.45      1426.5534      298465.6       298534.2       300361.55     -2674.3509     -1043.3417      863.77419      7790.4212      5373.7443      13164.166      157031.49      42.820551      42.820551      85.641102          16000 
    236000   3789.1989      299814.08      1432.9048      301178.31      298386.57      299877.36      1361.8026      2996.854      -2193.5531      7836.1886      5321.1349      13157.324      156976.39      42.815542      42.815542      85.631084          16000 
    237000   3812.1184      298385.28      1439.254       299769.53      296602.64      298783.66     -3460.7067      580.35769     -1902.3963      7883.5869      5370.1271      13253.714      157178.28      42.83389       42.83389       85.667779          16000 
    238000   3819.4886      300806.41      1445.5969      301329.14      301372.84      299717.25      617.1643      -313.35226     -685.35728      7898.8288      5302.2988      13201.128      156982.29      42.816078      42.816078      85.632157          16000 
    239000   3780.3791      300986.42      1451.9435      300744.03      300583.19      301632.03      1205.5738      1802.6788     -417.12765      7817.949       5335.5653      13153.514      156936.67      42.81193       42.81193       85.623861          16000 
    240000   3800.2904      299030.59      1458.2882      299300.92      299471.79      298319.07     -1557.5124     -1189.2245     -1601.8215      7859.1261      5350.691       13209.817      157115.48      42.828184      42.828184      85.656368          16000 
    241000   3807.0346      297169.3       1464.6342      298815.7       296325.8       296366.42     -1226.6618      1188.0268     -1084.9694      7873.0734      5263.6796      13136.753      157187.72      42.834747      42.834747      85.669494          16000 
    242000   3834.594       296982.9       1470.9759      298354.95      296634.61      295959.15     -1884.185       213.1951       1064.3903      7930.0672      5284.6009      13214.668      157267.14      42.84196       42.84196       85.68392           16000 
    243000   3765.3959      301011.89      1477.3158      301795.78      301351.47      299888.4       1031.3316     -1345.7578      1023.6999      7786.9633      5335.4931      13122.456      156929.7       42.811297      42.811297      85.622594          16000 
    244000   3783.8489      301740.42      1483.657       301588         303080         300553.27     -350.8993       104.49952      2636.7113      7825.1245      5303.1875      13128.312      156893.44      42.807999      42.807999      85.615998          16000 
    245000   3814.6648      298485.83      1489.9953      298702.47      298943.38      297811.64      2827.8208     -1151.0933      941.60484      7888.8529      5342.0481      13230.901      157095.76      42.826392      42.826392      85.652785          16000 
    246000   3795.0493      299609.68      1496.3363      300106.61      299422.58      299299.84      1593.3963     -2131.7199      390.67643      7848.2874      5299.5696      13147.857      157000.47      42.817731      42.817731      85.635463          16000 
    247000   3803.1683      296191.77      1502.6799      297766.7       294551.35      296257.24      1933.732      -256.18089     -596.52121      7865.0777      5364.2202      13229.298      157171.65      42.833287      42.833287      85.666574          16000 
    248000   3758.5373      300990.4       1509.0281      300077.38      301981.07      300912.77      49.75778       2614.8807      423.11806      7772.7793      5356.8704      13129.65       156956.09      42.813697      42.813697      85.627394          16000 
    249000   3758.2676      302845.22      1515.3784      302605.24      304024.99      301905.44     -1400.1301      549.91707     -943.51901      7772.2217      5448.9191      13221.141      156845.31      42.803621      42.803621      85.607243          16000 
    250000   3819.402       302311.11      1521.7265      303150.73      300966.79      302815.83      60.394169      2581.2049     -681.51946      7898.6496      5342.212       13240.862      156785.01      42.798135      42.798135      85.59627           16000 
    251000   3809.6757      301400.32      1528.0812      302612.47      300285.14      301303.37     -1578.7604     -587.43008      659.97634      7878.5353      5392.0643      13270.6        157005.79      42.818215      42.818215      85.636429          16000 
    252000   3772.7066      301225         1534.4316      301331.27      301751.51      300592.22      1413.1689     -509.82867      3121.2278      7802.0821      5304.1132      13106.195      156832.43      42.80245       42.80245       85.6049            16000 
    253000   3820.8075      304309.12      1540.7825      305348.22      304776.42      302802.74     -285.90011      2843.1157      1069.6352      7901.5563      5292.0836      13193.64       156716.21      42.791874      42.791874      85.583748          16000 
    254000   3799.9417      303789.69      1547.1253      303708.79      302873.74      304786.53      156.2129      -699.99609      336.0216       7858.405       5452.3442      13310.749      156844.11      42.803512      42.803512      85.607025          16000 
    255000   3790.8276      309017.65      1553.4736      309798.71      308206.7       309047.53      1736.8114      356.31761     -2841.4165      7839.5568      5441.4273      13280.984      156548.1       42.776568      42.776568      85.553136          16000 
    256000   3817.2129      305247.32      1559.8192      307533.76      303642.39      304565.8       2140.7896     -1414.7835      172.55226      7894.1225      5417.2173      13311.34       156762.08      42.796049      42.796049      85.592098          16000 
    257000   3787.1855      304723.16      1566.1627      303246.37      305927.98      304995.13     -2517.3152     -1168.6873     -2986.0283      7832.0249      5331.6558      13163.681      156752.03      42.795134      42.795134      85.590268          16000 
    258000   3822.4352      302613.75      1572.508       303097.97      303027.21      301716.08     -6.6454546      2270.5041      1050.0929      7904.9225      5335.6766      13240.599      156944.22      42.812617      42.812617      85.625234          16000 
    259000   3829.5355      303260.14      1578.8517      303495.64      303404.05      302880.74     -673.83708      368.56834      884.07554      7919.606       5482.1441      13401.75       156919.19      42.810341      42.810341      85.620682          16000 
    260000   3801.4196      308605.26      1585.1974      308829.74      307534.21      309451.83     -2461.1797      2250.9318      1361.4485      7861.4613      5348.6497      13210.111      156584.19      42.779855      42.779855      85.55971           16000 
    261000   3790.9142      304145.36      1591.5425      304435.61      305149.47      302851.01      1874.1502     -934.56513     -223.65069      7839.7358      5451.283       13291.019      156760.49      42.795905      42.795905      85.591809          16000 
    262000   3802.2633      303664.94      1597.8863      305788.77      302538.63      302667.43     -2402.7698      2371.3408      4721.6378      7863.2062      5363.914       13227.12       156823.69      42.801655      42.801655      85.603309          16000 
    263000   3810.6365      302488.8       1604.2316      302858.14      302381.67      302226.59      1303.6902      327.63272      2485.1327      7880.5223      5426.2487      13306.771      156932.12      42.811517      42.811517      85.623034          16000 
    264000   3820.4557      305285.82      1610.5781      304349.82      307124.1       304383.56     -3390.9119     -1883.2465     -1161.4589      7900.8287      5317.8708      13218.699      156709.33      42.791248      42.791248      85.582496          16000 
    265000   3815.9796      302916.17      1616.9228      302046.64      301836.15      304865.7      -362.41824      772.73491     -221.52529      7891.572       5345.6651      13237.237      156827.56      42.802007      42.802007      85.604013          16000 
    266000   3835.132       306034.46      1623.2705      305856.88      306168.24      306078.26     -404.81992      2286.4486      501.49507      7931.1798      5455.6562      13386.836      156710.44      42.791349      42.791349      85.582698          16000 
    267000   3845.6954      307024.38      1629.6158      306879.55      306298.91      307894.66     -2073.4434     -319.18831      2921.3248      7953.0253      5395.5873      13348.613      156593.23      42.780678      42.780678      85.561356          16000 
    268000   3816.2568      303820.4       1635.9584      304765.22      303272.57      303423.41      1922.0238      164.86921      1052.8645      7892.1452      5379.4832      13271.628      156847.74      42.803842      42.803842      85.607684          16000 
    269000   3777.8701      300935.77      1642.2968      300935.76      301100.52      300771.01     -1447.8609      2433.5633     -1900.2057      7812.7603      5444.1758      13256.936      156974.77      42.815395      42.815395      85.63079           16000 
    270000   3811.0697      303069.85      1648.6425      304901.26      302004.2       302304.08      636.96506     -314.56608      2674.209       7881.4182      5324.5923      13206.01       156845.85      42.80367       42.80367       85.60734           16000 
    271000   3805.5108      304426.16      1654.9787      304358.36      303906.58      305013.54      797.07642     -4338.6187      780.75867      7869.9221      5317.7477      13187.67       156726.74      42.792833      42.792833      85.585666          16000 
    272000   3823.6036      300634.88      1661.3095      301617.2       301103.74      299183.7       899.41561     -841.03028      1877.76        7907.3387      5381.6057      13288.944      156919.07      42.81033       42.81033       85.620661          16000 
    273000   3806.7055      301397.22      1667.6354      303172.27      301198.83      299820.56      343.18169      473.53923      1628.224       7872.3928      5259.1805      13131.573      156858.98      42.804865      42.804865      85.609729          16000 
    274000   3795.9314      299422.52      1673.964       297837.77      299857.37      300572.43      1014.1101     -3106.5372      790.39397      7850.1117      5417.0756      13267.187      157164.46      42.832634      42.832634      85.665267          16000 
    275000   3744.1508      300615.92      1680.2867      301314.08      301472.79      299060.9       1292.2278     -1603.6369     -1856.1131      7743.0275      5402.718       13145.746      157007.65      42.818384      42.818384      85.636769          16000 
    276000   3836.6748      296897.48      1686.6165      297928.1       296113.17      296651.16      791.34734      1364.569      -692.44854      7934.3703      5361.3838      13295.754      157305.72      42.845463      42.845463      85.690926          16000 
    277000   3795.4593      298453.69      1692.9564      299506.86      298122.74      297731.47      547.93464     -187.56558     -2316.471       7849.1354      5287.0868      13136.222      157066.01      42.823688      42.823688      85.647376          16000 
    278000   3817.6017      297852.38      1699.2946      298851.44      297052.88      297652.81      2495.0544      219.77673     -1475.8851      7894.9264      5418.3733      13313.3        157098.05      42.826601      42.826601      85.653201          16000 
    279000   3796.1198      300745.26      1705.6353      300567.29      301662.34      300006.15     -194.66298      2368.2591     -4010.7076      7850.5012      5318.8661      13169.367      156864.01      42.805323      42.805323      85.610646          16000 
    280000   3787.2808      299313.03      1711.9751      299573.73      299278.66      299086.72      816.32302      297.50183     -1503.0069      7832.2218      5194.6478      13026.87       156921.12      42.810516      42.810516      85.621033          16000 
    281000   3811.4163      301166.8       1718.3131      300869.71      299881.28      302749.43      957.68316      4020.6365     -907.821        7882.1349      5373.9559      13256.091      156961.02      42.814144      42.814144      85.628288          16000 
    282000   3827.5013      301478.19      1724.649       301614.19      301402.6       301417.77     -916.04668      619.15937      456.11671      7915.3993      5322.1744      13237.574      156957.63      42.813837      42.813837      85.627673          16000 
    283000   3755.2538      299363.52      1730.9849      299549.37      299608.97      298932.22      1634.4867      1947.5798      1254.6638      7765.9889      5332.3316      13098.321      156911.8       42.809669      42.809669      85.619337          16000 
    284000   3795.1922      306571.24      1737.3206      305675.68      308065.17      305972.88      690.96376      1601.3897      572.40285      7848.583       5394.995       13243.578      156695.92      42.790027      42.790027      85.580054          16000 
    285000   3847.4966      303640.93      1743.6609      303882.6       301415.22      305624.96     -1059.6542     -800.03246      2434.3863      7956.7503      5351.6831      13308.433      156894.58      42.808103      42.808103      85.616206          16000 
[...]
   3930000   3549.3224      300581.06      6623.0494      297749.69      299439.86      304553.64     -4389.0524      3729.2022     -2272.5582      7340.1161      13069.882      20409.998      160757.23      43.039517      43.039517      86.783215          16000 
   3931000   3546.2894      303590.92      6630.2257      299204.6       303597.36      307970.8       2133.5185     -3004.4192      1225.324       7333.8436      13135.139      20468.983      160440.94      43.011272      43.011272      86.726262          16000 
   3932000   3510.3549      301020.98      6637.3977      296835         301508         304719.94     -623.49884      764.11928      2110.2331      7259.53        13184.025      20443.555      160572.91      43.023061      43.023061      86.750034          16000 
   3933000   3540.3923      299933.25      6644.5744      293871.22      300080.71      305847.83      2464.569      -2275.053      -2093.337       7321.6484      13109.021      20430.669      160646.15      43.029602      43.029602      86.763221          16000 
   3934000   3592.9892      295624.24      6651.7505      294666.58      292323.41      299882.75     -2209.2845     -718.30327     -797.82823      7430.4205      12972.686      20403.106      160786.16      43.042099      43.042099      86.788421          16000 
   3935000   3573.0833      297594.04      6658.9277      296000.72      295508.65      301272.76      1207.473       2769.9324      1381.252       7389.2544      12981.658      20370.913      160953.87      43.057058      43.057058      86.818584          16000 
   3936000   3563.8964      300390.1       6666.0991      298026.89      296592.11      306551.3       1163.8789     -4511.8114      105.01032      7370.2557      13052.368      20422.624      160676.35      43.032298      43.032298      86.768659          16000 
   3937000   3561.3086      295375.13      6673.2719      292052.68      290536.46      303536.26      1265.7187      2483.5668     -1143.2254      7364.9038      12969.315      20334.219      161147.4       43.074309      43.074309      86.853368          16000 
   3938000   3556.3012      300247.62      6680.4415      300001.63      296310.56      304430.67      2542.5494      1849.1303      2726.7678      7354.5484      13039.174      20393.723      160830.66      43.046069      43.046069      86.796426          16000 
   3939000   3574.4699      302242.87      6687.6172      298390.29      300595.27      307743.06     -683.64608      489.59525     -3100.5595      7392.122       13065.019      20457.141      160494.74      43.016079      43.016079      86.735955          16000 
   3940000   3583.4514      299034.76      6694.7935      294786.79      300067.19      302250.29      2114.5732      1443.5708     -2148.0932      7410.6961      13034.8        20445.496      160553.12      43.021294      43.021294      86.746471          16000 
   3941000   3575.4254      303348.75      6701.9697      299923.66      298341.93      311780.67      2541.8466      1327.7104     -2088.2288      7394.098       13077.648      20471.746      160415.21      43.008972      43.008972      86.721625          16000 
   3942000   3543.6264      301242.27      6709.1424      299128.14      297571.45      307027.22     -1424.1659      2232.5136      172.96351      7328.3365      13078.253      20406.589      160758.17      43.039601      43.039601      86.783383          16000 
   3943000   3527.7535      300958.66      6716.3193      298140.45      297043.48      307692.04      2072.2851     -492.10827      737.03633      7295.5109      13124.115      20419.625      160687.44      43.033288      43.033288      86.770654          16000 
   3944000   3531.208       298512.35      6723.4942      293457.31      298844         303235.73     -996.87965     -771.01749      482.43365      7302.6549      13107.512      20410.166      160737.97      43.037798      43.037798      86.779749          16000 
   3945000   3552.9168      304862.93      6730.6703      304215         298815.46      311558.32     -3621.6434      3067.689       1164.387       7347.5495      13128.238      20475.788      160387.33      43.006481      43.006481      86.716601          16000 
   3946000   3553.8558      298102.88      6737.8438      294302.71      296507.87      303498.04      1696.9194      78.096996      2095.9526      7349.4913      13035.527      20385.019      160872.67      43.049817      43.049817      86.803983          16000 
   3947000   3562.3047      301719.51      6745.0189      297921.8       300894.03      306342.7       378.95409      984.59842     -1469.7763      7366.9638      13063.805      20430.769      160627.52      43.027938      43.027938      86.759867          16000 
   3948000   3524.0891      305478.96      6752.1931      303497.48      302668.17      310271.24     -1527.0776      294.55794      4381.1417      7287.9327      13153.446      20441.379      160572.21      43.022999      43.022999      86.749908          16000 
   3949000   3582.0565      298762.88      6759.3667      292484.84      294208.48      309595.32     -12.511711     -23.180559      33.549525      7407.8113      12946.785      20354.596      161033.28      43.064139      43.064139      86.832861          16000 
   3950000   3571.1972      295032.85      6766.5466      293448.21      294464.97      297185.38      631.08822     -1549.2411      5588.9712      7385.3538      12927.179      20312.533      161256.44      43.084022      43.084022      86.872953          16000 
   3951000   3562.8789      297798.52      6773.7299      297379.01      293474.94      302541.63     -1038.4713     -1349.5742     -3357.547       7368.1513      13011.392      20379.544      160894.78      43.051789      43.051789      86.807959          16000 
   3952000   3552.5         299331.89      6780.9195      296114.66      296357.4       305523.62      11.041098     -1480.6794      5668.977       7346.6874      13051.413      20398.101      160789.36      43.042385      43.042385      86.788997          16000 
   3953000   3580.6069      304130.38      6788.0973      303237.91      298902.91      310250.34     -976.93748      3217.0409      780.80979      7404.8135      13014.681      20419.494      160678.99      43.032534      43.032534      86.769134          16000 
   3954000   3561.6842      300710.54      6795.2744      296510.41      296225.46      309395.73     -829.37415     -719.71029     -528.22443      7365.6806      12993.551      20359.232      161000.38      43.061205      43.061205      86.826946          16000 
   3955000   3574.5603      296836.53      6802.4498      292175.68      296374.04      301959.86     -810.12205     -1881.1761      261.14661      7392.3089      12954.347      20346.656      161067.13      43.067156      43.067156      86.838944          16000 
   3956000   3586.4879      303488.86      6809.6213      301791.8       301829.86      306844.92      1522.6925     -2704.6842      2785.1748      7416.9756      13021.391      20438.367      160579.33      43.023635      43.023635      86.751191          16000 
   3957000   3549.4832      300738.8       6816.8039      299559.4       296648         306009        -973.6501       2088.1323     -65.140736      7340.4486      13087.31       20427.759      160628.75      43.028048      43.028048      86.760089          16000 
   3958000   3545.1985      302876.35      6823.984       302468.05      298812.77      307348.24     -1222.3696     -1422.7116     -2407.9471      7331.5877      13076.239      20407.827      160729.8       43.037069      43.037069      86.778279          16000 
   3959000   3586.0648      297207.16      6831.1611      294912.29      296535.38      300173.81      1032.2455      2421.5116     -1628.7515      7416.1005      12985.688      20401.788      160757.2       43.039515      43.039515      86.78321           16000 
   3960000   3572.5244      295610.54      6838.3307      294813.21      293450.7       298567.71      1679.866       342.55165      1782.9681      7388.0986      12943.602      20331.7        161132.31      43.072964      43.072964      86.850656          16000 
   3961000   3568.2364      301701.31      6845.5056      300789.32      299884.24      304430.37      162.47598      3672.7313     -1890.3759      7379.2308      13005.548      20384.779      160844.28      43.047285      43.047285      86.798877          16000 
   3962000   3579.1389      299051.18      6852.6819      297715.56      298515.94      300922.04     -268.10469     -2457.2514     -5561.1483      7401.7776      12967.625      20369.403      160923.87      43.054384      43.054384      86.813191          16000 
   3963000   3572.3605      299656.79      6859.8552      297484.75      295713.63      305772.01      747.39393     -1392.2635     -2679.9508      7387.7596      12992.999      20380.759      160861.69      43.048837      43.048837      86.802007          16000 
   3964000   3577.7131      301873.29      6867.0255      298299.62      297486.3       309833.95      1422.9657      4433.8541      1568.2105      7398.829       12978.724      20377.553      160875.8       43.050096      43.050096      86.804546          16000 
   3965000   3563.2917      303795.92      6874.1971      299091.82      301010.4       311285.55      2400.1022     -72.017324     -2811.2727      7369.0049      13067.385      20436.39       160560.46      43.02195       43.02195       86.747793          16000 
   3966000   3548.3024      303578.98      6881.3607      300575.97      300289.72      309871.26      2827.974       3097.2009     -748.78391      7338.0067      13060.332      20398.339      160760.52      43.039811      43.039811      86.783807          16000 
   3967000   3576.9638      299644.55      6888.5238      298728.19      296229.44      303976.03     -378.25912     -584.5865       3733.8115      7397.2793      13000.011      20397.29       160763.31      43.040059      43.040059      86.784308          16000 
   3968000   3576.3176      299467.88      6895.6918      297711.39      297029.54      303662.72      2885.7341      1402.6492      1323.0101      7395.943       12962.451      20358.394      160966.44      43.058179      43.058179      86.820844          16000 
   3969000   3590.2939      299148.3       6902.8488      294312.58      294062.28      309070.04     -7.6505437     -30.177577      2694.7871      7424.8464      12926.115      20350.962      160997.68      43.060965      43.060965      86.826461          16000 
   3970000   3593.1584      301198.25      6910.0064      298849.94      296160.45      308584.37      742.51648      290.87545     -486.12982      7430.7704      12914.655      20345.426      161021.41      43.06308       43.06308       86.830726          16000 
   3971000   3577.1806      301754.8       6917.1636      301160         300223.38      303881.03      2096.7343     -984.17782     -1481.5931      7397.7277      12983.704      20381.432      160828.33      43.045861      43.045861      86.796006          16000 
   3972000   3545.0334      299971.99      6924.3189      299328.32      297485.92      303101.72      1043.6565     -993.80524      2547.9047      7331.2464      13036.031      20367.277      160897.49      43.05203       43.05203       86.808446          16000 
   3973000   3565.3995      293807.24      6931.4828      289896.67      289580.88      301944.17     -1234.6922      3515.734      -66.347579      7373.3641      12930.149      20303.513      161243.76      43.082893      43.082893      86.870675          16000 
   3974000   3558.2702      302357.41      6938.6446      299528.36      299920.73      307623.14      2422.1192     -2990.6754      1055.3636      7358.6205      13018.683      20377.303      160846.34      43.047468      43.047468      86.799246          16000 
   3975000   3590.2634      301635.6       6945.8062      296857.58      300291.91      307757.32      2157.6276      1562.2707      2917.5575      7424.7833      13013.974      20438.757      160514.45      43.01784       43.01784       86.739506          16000 
   3976000   3590.3071      301002.01      6952.9663      294883.46      298065.47      310057.09     -103.51045      646.68635      426.31471      7424.8739      12983.424      20408.298      160674.63      43.032144      43.032144      86.768348          16000 
   3977000   3562.3056      300552.72      6960.1267      300215.64      298151.19      303291.32      356.43008     -1379.9071      1176.7744      7366.9657      13010.363      20377.329      160838.23      43.046745      43.046745      86.797788          16000 
   3978000   3579.524       300455.3       6967.2921      297930.52      300316.77      303118.61     -1378.1805      327.43695     -2602.5294      7402.5739      12988.137      20390.711      160763.16      43.040046      43.040046      86.784281          16000 
   3979000   3562.951       297962.84      6974.4525      297905.45      292017.25      303965.81      2012.7566      1233.581      -4056.1594      7368.3004      12986.547      20354.847      160950.87      43.056791      43.056791      86.818046          16000 
   3980000   3591.7753      297880.11      6981.6106      295557.9       294536.76      303545.67      1522.4676      3160.2766     -426.00898      7427.91        12919.2        20347.111      160988.17      43.060117      43.060117      86.824751          16000 
   3981000   3582.7175      303428.33      6988.7652      301099.08      299200.74      309985.17     -3839.9955     -2563.7438      765.88035      7409.1781      12991.755      20400.933      160698.3       43.034258      43.034258      86.77261           16000 
   3982000   3573.8272      299335.22      6995.917       298975.74      293698.56      305331.35     -4185.9721      2384.0091      424.6579       7390.7928      12937.011      20327.804      161087.15      43.06894       43.06894       86.842541          16000 
   3983000   3578.9034      301294.3       7003.0719      300627.15      299784.93      303470.82      1039.0711      2440.0764      1893.5564      7401.2906      12983.87       20385.161      160779.57      43.041511      43.041511      86.787235          16000 
   3984000   3584.4265      299378.97      7010.2339      293005.89      296801.11      308329.9       922.63378      212.16542      2725.7901      7412.7125      12943.699      20356.412      160929.64      43.054898      43.054898      86.814228          16000 
   3985000   3536.6108      299040.98      7017.3921      296728.57      296510.65      303883.72      637.43961      119.02412      716.86014      7313.828       13038.311      20352.139      160949.12      43.056635      43.056635      86.81773           16000 
   3986000   3572.3722      298918.01      7024.5502      295117.97      297866.14      303769.93     -609.77819     -2280.3308     -1780.4186      7387.7839      12973.998      20361.782      160896.64      43.051955      43.051955      86.808294          16000 
   3987000   3564.8694      301677.67      7031.7066      302084.73      297381.61      305566.67      1223.8039      2013.2324     -1033.256       7372.2678      13015.842      20388.11       160755.93      43.039401      43.039401      86.78298           16000 
   3988000   3570.357       303574.65      7038.8688      301123.14      300001.82      309598.99      188.86807     -4148.8797     -1083.7929      7383.6164      13066.583      20450.2        160427.36      43.010059      43.010059      86.723815          16000 
   3989000   3561.8044      295080.61      7046.0235      292627.61      293217.04      299397.16     -1511.2903     -883.76311     -3355.3751      7365.9293      12959.702      20325.631      161088.24      43.069037      43.069037      86.842738          16000 
   3990000   3540.335       299952.36      7053.1809      295520.47      300606.25      303730.36      2472.6455      1518.2838     -2531.747       7321.5299      13048.709      20370.239      160846.94      43.047522      43.047522      86.799355          16000 
   3991000   3569.8884      299075.8       7060.3352      297770.78      295770.85      303685.77     -697.77041      2244.5215      689.5495       7382.6472      13014.855      20397.502      160698.27      43.034255      43.034255      86.772604          16000 
   3992000   3541.3938      301745.5       7067.4939      299531.5       298300.78      307404.22      4711.0209     -1110.0569     -2263.7581      7323.7194      13054.074      20377.793      160795.01      43.042889      43.042889      86.790013          16000 
   3993000   3525.4827      296330.12      7074.6445      294063.95      294837.36      300089.05      747.50658      2386.0547     -4951.1448      7290.8147      13056.99       20347.805      160955.2       43.057177      43.057177      86.818823          16000 
   3994000   3525.3016      297952.86      7081.7947      297253.86      296843.96      299760.77      3131.9878      74.457399      1211.7057      7290.4402      13069.809      20360.249      160884.58      43.05088       43.05088       86.806126          16000 
   3995000   3548.2017      301164.24      7088.9543      300759.11      298279.77      304453.83     -1389.7528     -357.85259     -187.60258      7337.7984      13068.958      20406.756      160635.15      43.028619      43.028619      86.761241          16000 
   3996000   3543.223       298640.68      7096.1101      298329.73      295742.66      301849.64     -2377.5285      572.96367      3249.2135      7327.5023      13021.893      20349.396      160941.15      43.055925      43.055925      86.816298          16000 
   3997000   3534.7396      305804.85      7103.2691      301808.46      307445.88      308160.2      -734.38221     -5089.3267      1095.3448      7309.9583      13157.604      20467.562      160309.33      42.999508      42.999508      86.702542          16000 
   3998000   3558.6605      300735.23      7110.4309      301066.82      298683.75      302455.12     -555.97235      4024.1053      804.08125      7359.4275      13015.919      20375.346      160797.23      43.043087      43.043087      86.790413          16000 
   3999000   3534.6728      299057.15      7117.5961      295304.35      297547.74      304319.35      2446.9682     -2693.7519     -2126.6455      7309.8202      13041.482      20351.303      160920.97      43.054125      43.054125      86.812669          16000 
   4000000   3521.1536      299500.04      7124.7653      298748.07      296129.81      303622.24     -1258.6494     -909.23611      3472.7324      7281.8621      13076.694      20358.556      160882.32      43.050678      43.050678      86.805718          16000 
Loop time of 7124.77 on 8 procs for 1000000 steps with 16000 atoms

Performance: 6.063 ns/day, 3.958 hours/ns, 140.355 timesteps/s
59.0% CPU use with 1 MPI tasks x 8 OpenMP threads

MPI task timing breakdown:
Section |  min time  |  avg time  |  max time  |%varavg| %total
---------------------------------------------------------------
Pair    | 6840.7     | 6840.7     | 6840.7     |   0.0 | 96.01
Neigh   | 11.593     | 11.593     | 11.593     |   0.0 |  0.16
Comm    | 40.702     | 40.702     | 40.702     |   0.0 |  0.57
Output  | 1.5126     | 1.5126     | 1.5126     |   0.0 |  0.02
Modify  | 204.65     | 204.65     | 204.65     |   0.0 |  2.87
Other   |            | 25.59      |            |       |  0.36

Nlocal:          16000 ave       16000 max       16000 min
Histogram: 1 0 0 0 0 0 0 0 0 0
Nghost:          13582 ave       13582 max       13582 min
Histogram: 1 0 0 0 0 0 0 0 0 0
Neighs:              0 ave           0 max           0 min
Histogram: 1 0 0 0 0 0 0 0 0 0
FullNghs:  1.46416e+06 ave 1.46416e+06 max 1.46416e+06 min
Histogram: 1 0 0 0 0 0 0 0 0 0

Total # of neighbors = 1464164
Ave neighs/atom = 91.51025
Neighbor list builds = 32490
Dangerous builds = 0
Total wall time: 7:14:17
