
atom_style atomic
units metal
boundary p p p
#atom_modify sort 0 0.0
newton on

read_data data.lammps
Reading data file ...
  triclinic box = (0 0 0) to (4.3790145 4.3790145 4.3790145) with tilt (-0 0 0)
  1 by 1 by 1 MPI processor grid
  reading atoms ...
  8 atoms
  read_data CPU = 0.002 seconds
replicate 10 10 20
Replicating atoms ...
  triclinic box = (0 0 0) to (43.790145 43.790145 87.58029) with tilt (-0 0 0)
  1 by 1 by 1 MPI processor grid
  16000 atoms
  replicate CPU = 0.006 seconds

### interactions

pair_style flare
pair_coeff * * lmp.flare
Reading potential file lmp.flare with DATE: Thu

# compute unc all flare/std/atom L_inv_lmp.flare sparse_desc_lmp.flare
# compute MaxUnc all reduce max c_unc

mass 1 12.011000
mass 2 28.085000

thermo_style custom step temp press cpu pxx pyy pzz pxy pxz pyz ke pe etotal vol lx ly lz atoms    #c_MaxUnc
thermo 1000
timestep 0.0005
restart 100000 restart_*.dat

#################### Equilibrate at P and T_es ##############################
velocity all create $T 41928459 rot yes dist gaussian
velocity all create 3400 41928459 rot yes dist gaussian
fix mom all momentum 1000 linear 1 1 1 angular

fix 1 all npt temp $T $T $(100.0*dt) iso $P $P $(1000.0*dt)
fix 1 all npt temp 3400 $T $(100.0*dt) iso $P $P $(1000.0*dt)
fix 1 all npt temp 3400 3400 $(100.0*dt) iso $P $P $(1000.0*dt)
fix 1 all npt temp 3400 3400 0.050000000000000002776 iso $P $P $(1000.0*dt)
fix 1 all npt temp 3400 3400 0.050000000000000002776 iso 100000 $P $(1000.0*dt)
fix 1 all npt temp 3400 3400 0.050000000000000002776 iso 100000 100000 $(1000.0*dt)
fix 1 all npt temp 3400 3400 0.050000000000000002776 iso 100000 100000 0.5
dump 1 all custom 1000 1equil.bin id type x y z vx vy vz
run   10000 # report performance
Neighbor list info ...
  update every 1 steps, delay 10 steps, check yes
  max neighbors/atom: 2000, page size: 100000
  master list distance cutoff = 6
  ghost atom cutoff = 6
  binsize = 6, bins = 8 8 15
  1 neighbor lists, perpetual/occasional/extra = 1 0 0
  (1) pair flare/kk, perpetual
      attributes: full, newton on, kokkos_device
      pair build: full/bin/kk/device
      stencil: full/bin/3d
      bin: kk/device
Per MPI rank memory allocation (min/avg/max) = 15.9 | 15.9 | 15.9 Mbytes
   Step          Temp          Press           CPU            Pxx            Pyy            Pzz            Pxy            Pxz            Pyz           KinEng         PotEng         TotEng         Volume           Lx             Ly             Lz          Atoms   
         0   3400           63428.998      0              63090.392      63583.36       63613.243     -471.7975       212.49693     -533.43026      7031.3124     -4109.4047      2921.9077      167941.93      43.790145      43.790145      87.58029           16000 
      1000   3307.3182      97712.88       6.3465336      98025.313      98008.926      97104.401     -197.31113      626.45401      682.77034      6839.6433      3706.5033      10546.147      170305.19      43.994592      43.994592      87.989184          16000 
      2000   3384.8832      96637.733      12.639065      96526.853      96532.256      96854.09      -289.49212      1669.4877      965.77771      7000.0503      3962.0079      10962.058      170774.46      44.034963      44.034963      88.069927          16000 
      3000   3385.127       100780.58      18.935236      101655.48      101148.06      99538.207     -1181.3603     -106.17314     -498.90567      7000.5545      3636.4794      10637.034      170315.58      43.995487      43.995487      87.990974          16000 
      4000   3439.3357      97107.806      25.237602      96109.845      98373.345      96840.227      1836.3763     -1770.1662     -334.28085      7112.6598      3762.7834      10875.443      170648.54      44.024138      44.024138      88.048276          16000 
      5000   3393.4122      100298.81      31.529225      100771.89      99829.401      100295.14      1746.3875      212.29532      57.66683       7017.6886      3731.4536      10749.142      170456.06      44.00758       44.00758       88.01516           16000 
      6000   3402.7944      98499.477      37.823249      97630.341      97304.774      100563.32      552.76293     -109.71235     -578.71813      7037.0913      3685.8573      10722.949      170532.12      44.014124      44.014124      88.028249          16000 
      7000   3402.9467      95296.277      44.114145      95294.056      94640.853      95953.92      -1408.1749     -1100.5832     -1792.5781      7037.4063      3822.2794      10859.686      170901.25      44.045859      44.045859      88.091718          16000 
      8000   3357.6828      97554.757      50.406019      98205.696      97512.276      96946.3        4974.1647      1836.0105     -1118.7018      6943.7989      3716.8679      10660.667      170637.36      44.023177      44.023177      88.046353          16000 
      9000   3376.8486      96547.423      56.698933      96834.819      96658.357      96149.093     -772.81079      406.24523      1732.1037      6983.4345      3772.6131      10756.048      170775.86      44.035084      44.035084      88.070169          16000 
     10000   3389.0261      96513.974      62.988728      95606.994      97021.525      96913.403     -57.315834     -1441.0356      624.03629      7008.6181      3779.7236      10788.342      170804.69      44.037562      44.037562      88.075124          16000 
Loop time of 62.9887 on 8 procs for 10000 steps with 16000 atoms

Performance: 6.858 ns/day, 3.499 hours/ns, 158.759 timesteps/s
61.2% CPU use with 1 MPI tasks x 8 OpenMP threads

MPI task timing breakdown:
Section |  min time  |  avg time  |  max time  |%varavg| %total
---------------------------------------------------------------
Pair    | 60.012     | 60.012     | 60.012     |   0.0 | 95.27
Neigh   | 0.091287   | 0.091287   | 0.091287   |   0.0 |  0.14
Comm    | 0.35584    | 0.35584    | 0.35584    |   0.0 |  0.56
Output  | 0.020362   | 0.020362   | 0.020362   |   0.0 |  0.03
Modify  | 2.2544     | 2.2544     | 2.2544     |   0.0 |  3.58
Other   |            | 0.2546     |            |       |  0.40

Nlocal:          16000 ave       16000 max       16000 min
Histogram: 1 0 0 0 0 0 0 0 0 0
Nghost:          13604 ave       13604 max       13604 min
Histogram: 1 0 0 0 0 0 0 0 0 0
Neighs:              0 ave           0 max           0 min
Histogram: 1 0 0 0 0 0 0 0 0 0
FullNghs:  1.37603e+06 ave 1.37603e+06 max 1.37603e+06 min
Histogram: 1 0 0 0 0 0 0 0 0 0

Total # of neighbors = 1376028
Ave neighs/atom = 86.00175
Neighbor list builds = 291
Dangerous builds = 0
run  990000
Per MPI rank memory allocation (min/avg/max) = 15.97 | 15.97 | 15.97 Mbytes
   Step          Temp          Press           CPU            Pxx            Pyy            Pzz            Pxy            Pxz            Pyz           KinEng         PotEng         TotEng         Volume           Lx             Ly             Lz          Atoms   
     10000   3389.0261      96513.974      0              95606.994      97021.525      96913.403     -57.315834     -1441.0356      624.03629      7008.6181      3779.7236      10788.342      170804.69      44.037562      44.037562      88.075124          16000 
     11000   3411.0007      96362.434      6.2911717      96453.22       96265.578      96368.503     -1882.1385     -1863.8928      601.27719      7054.0623      3641.665       10695.727      170682.18      44.02703       44.02703       88.05406           16000 
     12000   3422.5752      96461.817      12.579232      96878.307      96837.632      95669.514      1593.463      -1197.7813     -192.28717      7077.9986      3726.5344      10804.533      170746.29      44.032542      44.032542      88.065085          16000 
     13000   3389.0979      97904.848      18.864818      96886.298      97880.495      98947.75       62.517757     -465.49457      1238.3934      7008.7665      3723.9301      10732.697      170600.54      44.020009      44.020009      88.040019          16000 
     14000   3409.233       98005.555      25.150065      96324.391      100416.87      97275.399     -477.20323     -2338.1058      518.04596      7050.4066      3756.7134      10807.12       170687.87      44.02752       44.02752       88.05504           16000 
     15000   3368.6415      99207.789      31.437452      98724.31       99216.028      99683.028      106.56892      265.75347      1805.6386      6966.462       3786.4545      10752.916      170550.44      44.015701      44.015701      88.031401          16000 
     16000   3412.5073      100295         37.724336      101181.06      99642.301      100061.63      1193.8382     -862.53809     -19.286739      7057.178       3636.64        10693.818      170401.74      44.002905      44.002905      88.005809          16000 
     17000   3370.8344      100039         44.008681      100151.36      99486.515      100479.13     -1044.2628      1150.2692     -644.02922      6970.997       3818.87        10789.867      170503.91      44.011697      44.011697      88.023395          16000 
     18000   3371.4588      101112.7       50.296058      100736.14      101201.83      101400.12     -161.63164      847.27557     -1214.1516      6972.2882      3715.7051      10687.993      170350.65      43.998506      43.998506      87.997012          16000 
     19000   3414.8786      100576.11      56.579822      101343.64      99792.224      100592.45     -816.55524     -877.58575      1254.2938      7062.0818      3776.5985      10838.68       170474.6       44.009175      44.009175      88.01835           16000 
     20000   3409.5299      101609.93      62.865138      102299.82      99274.212      103255.75      1021.8653     -794.62834     -1752.7         7051.0206      3755.9448      10806.965      170377.16      44.000788      44.000788      88.001576          16000 
     21000   3358.1895      102706.52      69.151549      103552.73      101493.24      103073.59      1644.3812     -565.04704      3283.952       6944.847       3762.1538      10707.001      170253.81      43.990167      43.990167      87.980334          16000 
     22000   3409.8672      102151.91      75.436456      102339.68      102687.11      101428.94      791.54332     -1181.2985      1081.7227      7051.7181      3798.31        10850.028      170365.84      43.999814      43.999814      87.999627          16000 
     23000   3401.9545      104151.43      81.723064      104601.19      104799.09      103054.02     -1049.3489      141.07132     -684.40168      7035.3543      3750.4329      10785.787      170079.48      43.975147      43.975147      87.950295          16000 
     24000   3428.834       101486.75      88.008993      101815.06      102088.52      100556.68     -837.40202     -1141.5428     -427.88295      7090.942       3775.8881      10866.83       170419.58      44.00444       44.00444       88.008881          16000 
     25000   3403.833       101072.71      94.294081      100141.97      100823.93      102252.23      924.57612      1117.5316      117.69421      7039.2391      3855.4739      10894.713      170514.8       44.012634      44.012634      88.025268          16000 
     26000   3388.2128      103189.34      100.57932      103765.79      103179.93      102622.31     -286.28446     -487.16192     -1230.2021      7006.9361      3741.1143      10748.05       170197.86      43.985348      43.985348      87.970697          16000 
     27000   3396.9419      103833.86      106.86331      104690.53      102690.09      104120.94     -788.08432      541.59007     -570.69763      7024.9881      3762.184       10787.172      170164.04      43.982434      43.982434      87.964869          16000 
     28000   3411.6038      102841.78      113.14978      104502.42      101068.87      102954.04     -826.20274     -1012.6912     -2317.851       7055.3093      3830.5749      10885.884      170340.35      43.99762       43.99762       87.995239          16000 
     29000   3417.3362      104192.88      119.43741      104995.34      104945.37      102637.92     -976.52558      1464.8031     -648.75608      7067.1642      3724.3983      10791.563      170096.87      43.976646      43.976646      87.953292          16000 
     30000   3469.3627      103583         125.72118      101850.56      104936.8       103961.64     -2360.6835     -981.36576     -1651.9321      7174.7568      3789.5301      10964.287      170322.55      43.996087      43.996087      87.992174          16000 
     31000   3396.3596      102679.36      132.00679      103086.65      102285.7       102665.72     -1626.7783     -1171.3243     -182.45527      7023.7839      3680.4504      10704.234      170209.22      43.986327      43.986327      87.972653          16000 
     32000   3388.0649      99434.829      138.29336      99775.276      99730.747      98798.463     -1465.0408      2009.3934     -165.83744      7006.6302      3774.3458      10780.976      170533.39      44.014233      44.014233      88.028467          16000 
     33000   3383.9338      99695.637      144.57709      100454.62      100596.22      98036.068     -104.90275      4.2620077      2101.6212      6998.087       3782.2335      10780.321      170423.03      44.004737      44.004737      88.009474          16000 
     34000   3400.0962      97918.622      150.86298      97765.024      96910.075      99080.769     -1624.433      -86.798614      383.22313      7031.5114      3772.2393      10803.751      170599.73      44.01994       44.01994       88.039881          16000 
     35000   3340.3248      98135.666      157.14622      98755.214      98007.643      97644.141     -46.263259      1701.7272      1849.0222      6907.9022      3732.974       10640.876      170463.6       44.008228      44.008228      88.016456          16000 
     36000   3383.469       98629.648      163.43205      99494.269      98597.911      97796.765     -160.87745     -2579.2307      1356.9178      6997.1257      3803.0882      10800.214      170691.61      44.027841      44.027841      88.055682          16000 
     37000   3401.3759      96744.133      169.71573      96516.395      97010.997      96705.007      662.81015      1366.4508     -53.230157      7034.1578      3641.3886      10675.546      170522.11      44.013263      44.013263      88.026526          16000 
     38000   3391.7589      98568.606      175.99982      97904.983      98022.291      99778.544      1008.6269     -1258.5935      2993.2235      7014.2694      3748.0588      10762.328      170646.16      44.023933      44.023933      88.047866          16000 
     39000   3401.457       96002.877      182.28475      94947.568      97308.972      95752.09       188.50014      1594.6735      1633.0284      7034.3254      3747.3573      10781.683      170789.67      44.036271      44.036271      88.072542          16000 
     40000   3381.7647      98103.293      188.57201      97597.854      98652.859      98059.167     -278.33015      229.47919     -199.54848      6993.6012      3699.0284      10692.63       170525.51      44.013556      44.013556      88.027111          16000 
     41000   3383.5385      97226.84       194.8553       97994.165      98070.5        95615.855     -2199.8682      2291.9153      827.08289      6997.2695      3810.3142      10807.584      170748.1       44.032698      44.032698      88.065396          16000 
     42000   3386.3552      100681.8       201.14101      100476.2       101056.71      100512.48      1560.0779      179.70329     -852.74986      7003.0946      3659.0876      10662.182      170365.94      43.999822      43.999822      87.999645          16000 
     43000   3403.6697      100792.21      207.42636      101448.55      100311.82      100616.26     -293.32524     -1155.1317     -2394.2149      7038.9014      3773.4414      10812.343      170506.16      44.011891      44.011891      88.023782          16000 
     44000   3408.8575      103762.58      213.71111      104701.72      103985.55      102600.47     -429.07394      89.781118     -2331.749       7049.63        3771.8861      10821.516      170137.04      43.980108      43.980108      87.960216          16000 
     45000   3394.3023      103278.31      219.99481      102665.64      104431.62      102737.69      923.82139      1413.0478     -312.8777       7019.5294      3732.608       10752.137      170166.92      43.982683      43.982683      87.965366          16000 
     46000   3399.0828      102564.09      226.27953      101967.57      103066.67      102658.03      625.38909      177.59746      2210.5032      7029.4156      3850.272       10879.688      170269.44      43.991514      43.991514      87.983027          16000 
     47000   3384.5062      107778.83      232.56422      108101.47      107349.08      107885.93      106.39503     -2861.9642      1198.4647      6999.2707      3697.8587      10697.129      169760.79      43.947664      43.947664      87.895329          16000 
     48000   3409.7582      103077.11      238.85001      102810.43      103513.1       102907.8       1354.053      -1436.9717     -199.55834      7051.4926      3804.8126      10856.305      170247.43      43.989618      43.989618      87.979236          16000 
     49000   3400.4787      104937.88      245.13397      104165.92      106220.89      104426.83      1088.5097     -706.63186     -1647.9697      7032.3024      3694.4407      10726.743      170141.96      43.980532      43.980532      87.961064          16000 
     50000   3378.0095      101062.82      251.42022      101279.24      100651.94      101257.28      698.11559      1298.2854     -170.62041      6985.8354      3763.2468      10749.082      170328.62      43.99661       43.99661       87.993219          16000 
     51000   3403.8182      99230.629      257.70371      98364.415      99666.558      99660.914      516.76519      1330.8225     -974.27834      7039.2087      3769.3312      10808.54       170508.65      44.012105      44.012105      88.024209          16000 
     52000   3405.1928      100752.78      263.98862      101061.05      101465.45      99731.847      111.33553      388.36928     -657.03727      7042.0513      3695.35        10737.401      170308.78      43.994901      43.994901      87.989802          16000 
     53000   3419.9138      101127.13      270.27503      100183.33      101965.17      101232.89     -321.01774     -439.1162      -225.91651      7072.4947      3862.556       10935.051      170420.6       44.004528      44.004528      88.009056          16000 
     54000   3405.1793      100791.46      276.559        100530.03      101727.67      100116.69     -17.266044     -404.12265      546.42183      7042.0234      3835.632       10877.655      170490.44      44.010538      44.010538      88.021075          16000 
     55000   3406.301       103410.82      282.84379      103079.7       103301.15      103851.61     -1943.8171      1808.6138     -846.41679      7044.343       3715.7392      10760.082      170206.38      43.986082      43.986082      87.972163          16000 
     56000   3415.1518      102717.05      289.12774      102725.99      102714.4       102710.77      122.84749     -3225.7667      1531.1593      7062.6468      3821.8357      10884.482      170321.96      43.996036      43.996036      87.992072          16000 
     57000   3387.1326      102511.94      295.41238      102866.65      102059.49      102609.69      1329.2125      2015.3197     -978.58054      7004.7022      3789.3008      10794.003      170245.61      43.989461      43.989461      87.978922          16000 
     58000   3385.3023      98841.421      301.69565      99667.825      98870.939      97985.5       -244.74609      965.16737     -762.27271      7000.9171      3874.1617      10875.079      170588.59      44.018982      44.018982      88.037963          16000 
     59000   3370.5764      99691.371      307.97915      99465.691      98366.411      101242.01      1946.3186      532.61373      28.41638       6970.4634      3770.6359      10741.099      170450.31      44.007085      44.007085      88.01417           16000 
     60000   3404.868       97426.385      314.26617      96756.536      99472.082      96050.536     -439.35089     -403.73898      68.0816        7041.3796      3832.266       10873.646      170715.69      44.029911      44.029911      88.059822          16000 
     61000   3376.7146      98638.358      320.55241      98538.855      97826.476      99549.743     -405.71628      652.79188     -872.05062      6983.1575      3716.1379      10699.295      170574.88      44.017803      44.017803      88.035605          16000 
     62000   3405.0759      95160.697      326.8397       95642.825      95362.435      94476.831      773.13882     -696.62491     -850.49972      7041.8096      3797.5501      10839.36       170913.25      44.046889      44.046889      88.093779          16000 
     63000   3368.4221      98377.621      333.12592      98215.837      98466.46       98450.564      953.31636      155.30482      648.50794      6966.0083      3729.027       10695.035      170422.66      44.004705      44.004705      88.00941           16000 
     64000   3443.5543      99958.294      339.41164      99066.35       100322.7       100485.83     -2045.9119      1721.7117      2089.8107      7121.3842      3757.1316      10878.516      170454.94      44.007483      44.007483      88.014966          16000 
     65000   3429.3409      102576.15      345.69594      102771.36      101976.54      102980.56      2810.6724      372.95966     -1760.4859      7091.9903      3655.3105      10747.301      170128.68      43.979388      43.979388      87.958776          16000 
     66000   3426.72        101663.62      351.98371      101451.85      102313.37      101225.63     -2391.8872     -440.84866     -1394.4527      7086.5702      3826.2022      10912.772      170437.32      44.005967      44.005967      88.011933          16000 
     67000   3405.3196      99741.582      358.26932      99157.739      99257.817      100809.19      1273.6893     -700.24243     -1348.6875      7042.3135      3765.7736      10808.087      170470.48      44.00882       44.00882       88.017641          16000 
     68000   3390.7086      102016.51      364.55613      101691.87      100869.39      103488.28     -1679.9707      1128.0486      1604.712       7012.0975      3680.297       10692.394      170152.89      43.981474      43.981474      87.962948          16000 
     69000   3425.8275      103801.28      370.84357      104740.33      102937.58      103725.92      354.97085      127.05839     -2994.5246      7084.7246      3769.4456      10854.17       170128.2       43.979347      43.979347      87.958694          16000 
     70000   3420.4492      105353.54      377.12847      104009.2       106596.16      105455.25     -899.51342     -702.81635      1833.2912      7073.6019      3745.667       10819.269      170034.79      43.971296      43.971296      87.942591          16000 
     71000   3425.994       107649.58      383.41456      108766.51      107243.2       106939.04     -2402.922      -315.94334     -2709.8777      7085.0688      3692.7272      10777.796      169898.66      43.959559      43.959559      87.919117          16000 
     72000   3422.9328      101551.04      389.70419      101091.22      101467.07      102094.81      1162.5348      502.91778      117.48761      7078.7382      3817.8141      10896.552      170297.71      43.993948      43.993948      87.987896          16000 
     73000   3431.9992      102488.68      395.99184      104264.2       103256.93      99944.906      712.78998     -895.1953      -1494.9969      7097.4877      3771.2611      10868.749      170355.82      43.998952      43.998952      87.997903          16000 
     74000   3391.8589      101196.32      402.28256      101162.45      102157.54      100268.98      1172.5206     -614.7161       899.72651      7014.4764      3688.432       10702.908      170266.95      43.991299      43.991299      87.982598          16000 
     75000   3376.4136      97539.749      408.5716       98321.019      97727.231      96570.998      244.66815      3033.5182      333.02105      6982.5349      3780.5629      10763.098      170643.58      44.023711      44.023711      88.047422          16000 
     76000   3390.36        96411.666      414.86455      97430.664      95774.507      96029.827     -684.40042      444.32739     -1365.7164      7011.3765      3781.9154      10793.292      170790.58      44.036349      44.036349      88.072697          16000 
     77000   3358.0686      98460.434      421.1518       99572.926      97686.821      98121.557      443.31339     -1308.8906     -45.987188      6944.5969      3736.528       10681.125      170486.45      44.010195      44.010195      88.02039           16000 
     78000   3385.3345      96736.448      427.44553      96116.904      94997.77       99094.67       928.46958     -437.58302      2138.4605      7000.9836      3772.9816      10773.965      170784.29      44.035808      44.035808      88.071617          16000 
     79000   3396.872       97819.242      433.74881      96258.933      99113.486      98085.308     -616.43763     -1492.336       62.392582      7024.8436      3703.4517      10728.295      170644.12      44.023758      44.023758      88.047516          16000 
     80000   3395.7545      94604.695      440.05182      94957.937      94136.756      94719.393     -637.21684      1125.1977     -1050.9094      7022.5326      3674.169       10696.702      170869.8       44.043156      44.043156      88.086313          16000 
     81000   3370.9495      96980.476      446.35365      96907.488      97160.891      96873.048     -1734.2562     -2750.1872      967.11096      6971.235       3787.566       10758.801      170763.89      44.034055      44.034055      88.06811           16000 
     82000   3402.5698      96754.409      452.6554       96702.068      96606.452      96954.707     -2995.4939     -1726.3337      84.062405      7036.6269      3669.3137      10705.941      170679.76      44.026823      44.026823      88.053645          16000 
     83000   3398.5591      99915.193      458.95844      101070.05      98262.326      100413.2      -1182.6227     -875.58669      1859.6666      7028.3326      3781.2886      10809.621      170559.46      44.016476      44.016476      88.032952          16000 
     84000   3365.6013      99743.046      465.26495      100229.09      100617.41      98382.636      1440.5719      2169.4151      813.69581      6960.1747      3790.6854      10750.86       170486.81      44.010225      44.010225      88.020451          16000 
     85000   3371.2471      100808.47      471.56707      101376.07      101002.62      100046.71      421.89958      1869.6145      1403.2871      6971.8504      3738.399       10710.249      170357.55      43.9991        43.9991        87.998201          16000 
     86000   3392.9724      99168.984      477.873        98147.182      100361.72      98998.052     -918.22882     -463.88343     -2265.5627      7016.779       3749.7495      10766.529      170465.94      44.00843       44.00843       88.016859          16000 
     87000   3394.8739      97488.524      484.17902      97111.129      96684.241      98670.201      1035.813       1515.3494     -2553.6163      7020.7116      3729.2588      10749.97       170608.27      44.020675      44.020675      88.04135           16000 
     88000   3364.6602      99548.319      490.48764      101024.94      99551.291      98068.723     -1066.8644      1280.744      -1496.7069      6958.2284      3814.6298      10772.858      170511.22      44.012326      44.012326      88.024651          16000 
     89000   3393.3388      101602.53      496.79613      102019.27      101432.39      101355.93      1562.5647     -852.43742      1010.2435      7017.5369      3801.2163      10818.753      170442.04      44.006373      44.006373      88.012747          16000 
     90000   3397.3912      104940.33      503.10783      103867.22      105222.91      105730.86     -2095.6558      652.33529      2609.0388      7025.9174      3774.8113      10800.729      170182.97      43.984065      43.984065      87.968131          16000 
     91000   3390.4413      102867.13      509.41981      103154.81      103511.29      101935.27      733.5638      -2449.9392      717.77492      7011.5447      3782.9784      10794.523      170271.52      43.991692      43.991692      87.983385          16000 
     92000   3343.0794      100305         515.73358      100141.8       99836.338      100936.85     -741.02033     -519.15541      336.7158       6913.5988      3758.66        10672.259      170330.95      43.99681       43.99681       87.993621          16000 
     93000   3407.3326      99469.875      522.05314      100012.31      98952.671      99444.644     -1884.2725      1529.8115     -1732.9914      7046.4764      3739.3829      10785.859      170557.48      44.016306      44.016306      88.032611          16000 
     94000   3421.4986      98489.118      528.36997      98892.748      98004.459      98570.147     -1107.0235      1530.8092     -1066.9687      7075.7722      3780.8907      10856.663      170749.75      44.03284       44.03284       88.065679          16000 
     95000   3369.1191      99228.406      534.69315      97443.004      101132.75      99109.463     -1199.8613      2875.4079     -1351.6408      6967.4496      3752.2467      10719.696      170514.54      44.012612      44.012612      88.025224          16000 
     96000   3395.0386      99454.926      541.0147       98571.191      99740.862      100052.73      221.68264     -706.41705      1155.031       7021.0521      3709.7105      10730.763      170498.2       44.011206      44.011206      88.022412          16000 
     97000   3379.5316      99855.718      547.33373      97576.811      101356.65      100633.7      -1017.4557      138.30225      565.43143      6988.9831      3763.1596      10752.143      170452.53      44.007276      44.007276      88.014552          16000 
     98000   3405.1755      98480.193      553.65361      98849.113      97671.021      98920.444     -759.03361     -1611.7754      1927.3712      7042.0155      3768.718       10810.734      170599.21      44.019896      44.019896      88.039791          16000 
     99000   3414.1461      98887.613      559.95628      99288.618      98204.555      99169.667      313.02886     -251.33832     -585.55272      7060.5671      3748.3933      10808.96       170636.46      44.023099      44.023099      88.046199          16000 
    100000   3372.6461      102474.86      566.28057      103444.16      102038.16      101942.28      550.25548     -110.42386     -1126.0771      6974.7436      3713.8521      10688.596      170192.67      43.984901      43.984901      87.969803          16000 
    101000   3425.2384      99271.723      572.61998      99527.085      100642.23      97645.85       1371.1842     -592.72051      1113.6254      7083.5063      3727.0849      10810.591      170408.25      44.003465      44.003465      88.00693           16000 
    102000   3354.3343      104329.08      578.94602      104367         104470.08      104150.15     -1448.9987     -2572.176      -759.3977       6936.8743      3717.7923      10654.667      170105.42      43.977383      43.977383      87.954766          16000 
    103000   3422.0747      100865.23      585.27272      100799.23      101315.75      100480.71     -309.53668      1045.7497     -1784.463       7076.9637      3755.7234      10832.687      170329.81      43.996712      43.996712      87.993424          16000 
    104000   3409.3372      102422.56      591.60112      103778.97      101128.91      102359.8       420.54276     -366.66006     -173.51201      7050.6221      3743.9124      10794.534      170231.6       43.988254      43.988254      87.976509          16000 
    105000   3436.2517      101612.06      597.92772      100697.04      101479.81      102659.31     -1219.1453      422.78166      275.09047      7106.2821      3729.5304      10835.812      170353.12      43.998719      43.998719      87.997438          16000 
    106000   3408.8605      99060.076      604.25772      99177.223      98806.274      99196.731      1165.7092      239.48876     -2100.664       7049.6363      3808.6463      10858.283      170535.89      44.014449      44.014449      88.028897          16000 
    107000   3387.2202      96991.661      610.58873      96988.094      95936.16       98050.73       1107.8661     -104.91019     -158.5779       7004.8835      3653.9899      10658.873      170549.16      44.01559       44.01559       88.03118           16000 
    108000   3386.2414      99310.323      616.91418      97825.976      99224.696      100880.3       1192.9498     -1428.9152      370.85392      7002.8592      3756.543       10759.402      170542.51      44.015018      44.015018      88.030036          16000 
    109000   3423.2352      98785.164      623.24375      97700.991      98602.722      100051.78      1907.1058     -109.45825      2633.381       7079.3635      3779.604       10858.968      170607.36      44.020596      44.020596      88.041192          16000 
    110000   3389.833       101261.42      629.56844      100660.67      101301.71      101821.87     -18.180091      1504.3465      2053.9836      7010.2866      3785.6832      10795.97       170400.33      44.002783      44.002783      88.005567          16000 
    111000   3394.9421      100795.09      635.89169      100162.29      101563.19      100659.78      957.14158     -1691.6019      1034.1756      7020.8526      3831.1785      10852.031      170411.82      44.003772      44.003772      88.007544          16000 
    112000   3402.8068      100584.89      642.20818      100240.05      100222.6       101292.01     -1138.4875      1424.0156      1572.2592      7037.117       3798.6423      10835.759      170421.05      44.004566      44.004566      88.009132          16000 
    113000   3360.7805      104735.6       648.51328      104688.56      105371.93      104146.32     -437.45975     -455.58619      1447.4829      6950.2051      3748.2842      10698.489      170031.21      43.970987      43.970987      87.941974          16000 
    114000   3373.1496      101438.11      654.82141      102112.17      100306.7       101895.45      394.18249      949.84065     -87.252864      6975.7849      3863.9219      10839.707      170361.65      43.999454      43.999454      87.998907          16000 
    115000   3400.6596      102646.2       661.13244      103201.28      102678.38      102058.95     -1017.1152      186.5289      -335.98926      7032.6765      3784.0609      10816.737      170122.43      43.978849      43.978849      87.957698          16000 
    116000   3418.9942      102911.66      667.44036      102815.12      102945.78      102974.1       1567.9695     -2470.3815     -1202.7546      7070.5931      3786.5957      10857.189      170274.62      43.99196       43.99196       87.983919          16000 
    117000   3425.6575      100167.59      673.7484       100097.55      100752.74      99652.468     -610.56808     -385.46098     -1788.563       7084.373       3777.1014      10861.474      170511.97      44.01239       44.01239       88.02478           16000 
    118000   3420.8898      101473.41      680.0549       101443.82      102034.07      100942.33     -102.93986     -935.36811     -1411.946       7074.5132      3707.3501      10781.863      170350.36      43.998481      43.998481      87.996963          16000 
    119000   3387.3173      100664.24      686.35893      100294.35      101719.24      99979.14      -1582.7171     -281.78499     -690.04822      7005.0842      3809.0451      10814.129      170493.21      44.010777      44.010777      88.021554          16000 
    120000   3418.3058      100906.5       692.66274      99360.919      102763.43      100595.16      135.38057     -71.952979     -184.06303      7069.1694      3734.44        10803.609      170437.26      44.005962      44.005962      88.011924          16000 
    121000   3377.4123      105433.62      698.96287      105663.16      104997.13      105640.56      1029.8839     -130.19226     -34.154835      6984.6002      3811.0273      10795.627      170017.87      43.969837      43.969837      87.939674          16000 
    122000   3406.965       102309.78      705.26302      103097.44      101322.38      102509.53      2821.327       2279.3823     -2098.8919      7045.7163      3869.4865      10915.203      170290.33      43.993312      43.993312      87.986625          16000 
    123000   3388.6316      100988.24      711.56458      100883.21      101036.16      101045.34      506.75186      374.94645      1775.2734      7007.8021      3707.9789      10715.781      170389.97      44.001891      44.001891      88.003783          16000 
    124000   3419.5442      100032.8       717.86542      100864.46      99067.948      100165.98      112.54886     -710.61828      1242.8708      7071.7305      3751.522       10823.253      170528.61      44.013822      44.013822      88.027644          16000 
    125000   3389.298       102823.13      724.16411      102670.94      102064.62      103733.83      1314.7783     -748.85509      1732.1503      7009.1804      3753.4591      10762.639      170178.04      43.983641      43.983641      87.967282          16000 
    126000   3430.6991      99551.276      730.46195      99722.515      99412.569      99518.746      2079.3937     -173.18053     -1015.386       7094.7992      3775.1033      10869.903      170607.68      44.020624      44.020624      88.041248          16000 
    127000   3374.0716      99163.706      736.76159      98895.822      98071.365      100523.93      10.720463      2399.157       286.86651      6977.6916      3733.4564      10711.148      170459.4       44.007867      44.007867      88.015733          16000 
    128000   3408.7517      97454.027      743.06021      97556.389      96659.561      98146.133      559.42585     -633.73689      107.97282      7049.4113      3776.0551      10825.466      170742.66      44.03223       44.03223       88.06446           16000 
    129000   3402.6079      98343.653      749.35121      98427.438      98764.104      97839.418      1680.3086     -2392.9397      1094.775       7036.7056      3786.5302      10823.236      170593.08      44.019368      44.019368      88.038736          16000 
    130000   3379.3239      100229.72      755.65415      100391.76      99678.198      100619.2       1470.2499     -17.120997     -371.88503      6988.5535      3701.5391      10690.093      170383.15      44.001304      44.001304      88.002609          16000 
    131000   3408.5417      99302.721      761.96342      97820.085      100471.2       99616.876     -881.47889      29.435446      337.28044      7048.9769      3642.9075      10691.884      170443.08      44.006463      44.006463      88.012925          16000 
    132000   3420.8158      95915.267      768.2686       95799.75       96888.825      95057.225      17.958166      640.81652      920.28065      7074.3601      3760.1165      10834.477      170842.15      44.040781      44.040781      88.081562          16000 
    133000   3371.2198      98468.884      774.57903      98031.381      100391.05      96984.226     -406.00414      1131.3955     -890.81685      6971.7941      3742.8002      10714.594      170526         44.013598      44.013598      88.027195          16000 
    134000   3423.7849      99856.337      780.89233      100815.94      98342.017      100411.05     -1904.6832      903.35688      1224.4045      7080.5003      3703.6305      10784.131      170542.44      44.015012      44.015012      88.030024          16000 
    135000   3372.8811      98334.678      787.21256      97264.845      98433.29       99305.898     -1192.7139     -388.86684      576.83884      6975.2297      3817.6737      10792.903      170629.01      44.022458      44.022458      88.044916          16000 
    136000   3351.874       97361.154      793.53597      96845.284      97730.665      97507.515     -1792.8626      1760.4633     -876.03567      6931.7863      3730.8957      10662.682      170644.22      44.023767      44.023767      88.047533          16000 
    137000   3395.3617      97883.968      799.85862      98157.899      98866.478      96627.526     -961.65938      1324.5603     -1679.5609      7021.7203      3743.1562      10764.877      170597.24      44.019726      44.019726      88.039452          16000 
    138000   3402.8418      96781.14       806.18074      96809.357      98548.239      94985.823      896.48138     -321.85507      1103.4039      7037.1893      3680.1416      10717.331      170695.07      44.028139      44.028139      88.056277          16000 
    139000   3362.3939      98219.275      812.50539      98644.357      99214.093      96799.376      562.74994     -1290.9284      723.5784       6953.5417      3770.1246      10723.666      170633.65      44.022858      44.022858      88.045716          16000 
    140000   3432.3412      97318.302      818.8344       97258.907      96641.804      98054.195     -1066.0968     -607.74813     -1108.0245      7098.1951      3709.7197      10807.915      170700.51      44.028607      44.028607      88.057213          16000 
    141000   3388.6744      99358.53       825.15993      98405.244      100311.06      99359.284     -2464.3904      373.29972     -766.67478      7007.8907      3643.2825      10651.173      170383.79      44.001359      44.001359      88.002718          16000 
    142000   3413.4311      100072.72      831.48507      101209.27      100294.33      98714.555     -379.72532      1351.7247     -1303.1929      7059.0884      3790.0318      10849.12       170467.42      44.008557      44.008557      88.017114          16000 
    143000   3444.8923      100880.47      837.81158      99975.79       100732.06      101933.57      1142.1709     -1302.0008      4134.7043      7124.1511      3753.5071      10877.658      170422.29      44.004673      44.004673      88.009346          16000 
    144000   3424.1386      101888.25      844.14245      101125.35      103020.89      101518.52     -871.32324     -1471.5274      217.43527      7081.2318      3691.5822      10772.814      170347.79      43.99826       43.99826       87.99652           16000 
    145000   3416.9438      100949.54      850.47475      100456.16      101318.64      101073.81     -1597.6871     -805.28699     -771.2191       7066.3528      3783.5759      10849.929      170429.15      44.005263      44.005263      88.010527          16000 
    146000   3420.8858      100620.57      856.80787      99978.117      101349.88      100533.72     -827.74392     -1482.7269      2411.8002      7074.5048      3797.1175      10871.622      170480.61      44.009692      44.009692      88.019384          16000 
    147000   3412.2411      100748.56      863.14438      100125.88      101242.09      100877.71      449.71122      253.15557     -1577.4028      7056.6274      3747.2936      10803.921      170378.25      44.000883      44.000883      88.001765          16000 
    148000   3405.9894      100804.38      869.4808       100828.41      100303.43      101281.3       678.52373      292.58429     -775.0711       7043.6987      3810.1084      10853.807      170439.11      44.00612       44.00612       88.012241          16000 
    149000   3396.978       101722.7       875.82026      99896.976      103645.33      101625.81     -1619.0748      3526.7891     -262.7834       7025.0628      3774.9174      10799.98       170325.39      43.996331      43.996331      87.992662          16000 
    150000   3442.3533      102685.54      882.15498      103741.29      103374.27      100941.05     -368.33393     -230.43957     -156.41752      7118.9004      3886.7313      11005.632      170378.39      44.000894      44.000894      88.001789          16000 
    151000   3432.9638      101246.64      888.49116      100459.01      101263.52      102017.38      423.31763     -1531.4578      414.62474      7099.4826      3755.8981      10855.381      170410.95      44.003697      44.003697      88.007394          16000 
    152000   3379.2735      101638.79      894.82602      101176.49      103092.86      100647.01     -3411.9083      1043.5699      14.780155      6988.4492      3726.4192      10714.868      170260.84      43.990773      43.990773      87.981546          16000 
    153000   3414.5566      96691.71       901.16029      96146.979      96958.032      96970.119      780.06534     -1717.7997     -590.75597      7061.416       3758.6716      10820.088      170741.62      44.03214       44.03214       88.064281          16000 
    154000   3379.7967      98482.058      907.49792      98287.608      98646.706      98511.86      -774.65822     -674.30333     -1540.178       6989.5313      3707.1742      10696.706      170457.41      44.007696      44.007696      88.015392          16000 
    155000   3386.8056      98532.989      913.83449      97602.877      98789.757      99206.334     -530.93855      29.824552      686.54585      7004.0259      3753.861       10757.887      170543.92      44.015139      44.015139      88.030279          16000 
    156000   3411.1486      97481.932      920.17346      96288.508      98231.652      97925.636     -1901.1867     -976.47385      1907.0588      7054.3682      3886.6675      10941.036      170733.46      44.03144       44.03144       88.062879          16000 
    157000   3392.8694      100870.94      926.50932      100877.58      100261.62      101473.61     -985.9944      -202.20944     -1246.3998      7016.5661      3741.7394      10758.305      170434.16      44.005695      44.005695      88.01139           16000 
    158000   3447.2989      97392.097      932.84851      98362.36       97030.99       96782.94      -872.19331     -730.86491      153.44482      7129.1282      3753.4118      10882.54       170740.46      44.032041      44.032041      88.064082          16000 
    159000   3345.0332      98413.252      939.18561      97151.726      98356.996      99731.035      128.16838     -2050.8883      560.15799      6917.6393      3819.8525      10737.492      170598.67      44.019849      44.019849      88.039698          16000 
    160000   3384.3625      97990.327      945.52209      97140.018      98491.746      98339.218     -1575.3669      309.35242     -853.06777      6998.9735      3664.0469      10663.02       170579.88      44.018232      44.018232      88.036465          16000 
    161000   3387.4393      98800.973      951.85693      98905.944      97018.686      100478.29      988.45522     -3150.5166      3226.079       7005.3365      3768.0721      10773.409      170486.89      44.010233      44.010233      88.020466          16000 
    162000   3411.3427      99039.349      958.19557      100176.16      98296.026      98645.867      545.61135      1801.0896      1554.9568      7054.7695      3760.2295      10814.999      170538.89      44.014707      44.014707      88.029414          16000 
    163000   3436.7201      99315.2        964.53345      98423.584      99432.141      100089.87      255.78768     -581.90515      1247.4516      7107.2508      3749.2313      10856.482      170554.17      44.016021      44.016021      88.032043          16000 
    164000   3405.8322      100109.28      970.86858      100215.89      100324.28      99787.672     -912.3414       1481.113      -3237.7322      7043.3736      3776.0474      10819.421      170462.91      44.008169      44.008169      88.016338          16000 
    165000   3363.2067      104279.03      977.21056      103835.79      103593.99      105407.31     -68.595887      2208.4853     -297.09336      6955.2226      3758.5538      10713.776      170060.97      43.973552      43.973552      87.947104          16000 
    166000   3388.6947      102225.31      983.54952      101893.62      102560.57      102221.73      725.59936     -573.27407      58.214017      7007.9327      3828.9528      10836.885      170346.46      43.998145      43.998145      87.99629           16000 
    167000   3393.0106      102811.43      989.89137      103223.21      101754.65      103456.44     -490.97915     -1280.16        2936.4032      7016.8581      3686.7013      10703.559      170160.48      43.982128      43.982128      87.964256          16000 
    168000   3405.7539      101692.24      996.23706      102014.86      102043.85      101018         607.77056     -500.94428      1276.2643      7043.2116      3775.2739      10818.485      170354.35      43.998825      43.998825      87.99765           16000 
    169000   3419.6481      103165.7       1002.5708      102810.16      103397.7       103289.23     -1482.9577      929.71527     -616.40381      7071.9454      3698.1756      10770.121      170169.1       43.982871      43.982871      87.965741          16000 
    170000   3389.6205      101413.12      1008.908       100845.34      100631.09      102762.92      489.72135      1575.2823      1908.2171      7009.8472      3757.8955      10767.743      170338.19      43.997433      43.997433      87.994866          16000 
    171000   3401.7986      102818.78      1015.2454      102004.68      103662.68      102788.97     -324.50273     -785.72964     -935.43217      7035.032       3821.4504      10856.482      170271.07      43.991654      43.991654      87.983309          16000 
    172000   3396.3167      104981.22      1021.5838      104756.87      104122.05      106064.75     -91.483073      624.44584     -445.48085      7023.6953      3803.2462      10826.941      170146.42      43.980917      43.980917      87.961833          16000 
    173000   3404.4852      102434.78      1027.9218      103045.48      102286.04      101972.83      891.40411      1387.5283     -747.6284       7040.5879      3720.7275      10761.315      170191.83      43.984829      43.984829      87.969658          16000 
    174000   3403.2885      99253.484      1034.2682      101064.96      97913.951      98781.54       1877.6522     -187.14027      1236.1156      7038.1132      3861.9452      10900.058      170577.04      44.017988      44.017988      88.035977          16000 
    175000   3388.274       100306.49      1040.6044      99280.008      102690.17      98949.283      114.25837     -1370.6395      1016.0309      7007.0626      3765.736       10772.799      170339.45      43.997542      43.997542      87.995084          16000 
    176000   3425.3133      99727.483      1046.9578      98393.873      99955.597      100832.98     -1182.48       -1531.6149     -384.82982      7083.6611      3815.8574      10899.519      170595.8       44.019603      44.019603      88.039205          16000 
    177000   3386.3868      99363.942      1053.3004      98697.352      99704.385      99690.089     -1116.906      -821.17577      672.79647      7003.1599      3765.2081      10768.368      170518.06      44.012915      44.012915      88.025829          16000 
    178000   3394.8755      95375.036      1059.6373      95540.471      95338.744      95245.893      421.11898     -505.13133      221.38399      7020.7148      3799.4695      10820.184      170903.83      44.046081      44.046081      88.092161          16000 
    179000   3384.1706      95557.307      1065.9797      96977.813      96571.468      93122.64      -630.17194     -132.91566     -2587.788       6998.5767      3682.0221      10680.599      170756.48      44.033418      44.033418      88.066836          16000 
    180000   3367.2236      93492.883      1072.3121      93304.661      94210.005      92963.982      40.626115      1026.6602      1256.6309      6963.5297      3765.4284      10728.958      171055.35      44.059093      44.059093      88.118187          16000 
    181000   3382.9985      97274.78       1078.6537      96697.749      98451.757      96674.833      1539.0295     -167.03469     -1186.2983      6996.1528      3735.474       10731.627      170710.75      44.029487      44.029487      88.058974          16000 
    182000   3405.5252      96661.513      1084.9908      98355.332      96597.932      95031.274      1096.4081     -761.95146     -795.91808      7042.7388      3681.9337      10724.673      170683.1       44.027109      44.027109      88.054219          16000 
    183000   3371.5827      96923.539      1091.3287      97810.37       96737.375      96222.87       940.78295      1974.9593      544.91976      6972.5445      3776.4637      10749.008      170627.95      44.022367      44.022367      88.044735          16000 
    184000   3383.2862      96576.528      1097.6669      96055.026      97593.625      96080.935      308.57877     -1427.8273      1601.7296      6996.7477      3721.1197      10717.867      170709.62      44.02939       44.02939       88.05878           16000 
    185000   3402.0607      94026.32       1104.0052      95337.506      93925.503      92815.951     -1141.6587      32.152107      570.75379      7035.5739      3779.915       10815.489      170917.14      44.047224      44.047224      88.094448          16000 
    186000   3371.8469      98545.06       1110.3417      99423.863      98851.946      97359.372     -436.75591     -639.80207      948.87138      6973.0909      3711.7149      10684.806      170516.64      44.012792      44.012792      88.025585          16000 
    187000   3409.153       97922.35       1116.6796      97276.59       98148.195      98342.265     -752.97573     -178.99148     -591.0375       7050.2411      3725.1911      10775.432      170624.81      44.022097      44.022097      88.044195          16000 
    188000   3378.2975      98328.864      1123.0212      98681.741      99011.19       97293.663      763.28372      884.38239      1251.4711      6986.431       3678.0593      10664.49       170595.57      44.019583      44.019583      88.039165          16000 
    189000   3374.313       98155.098      1129.3554      98161.665      99265.138      97038.49       3363.2234     -652.43115      2175.2747      6978.1909      3778.9578      10757.149      170590.57      44.019152      44.019152      88.038305          16000 
    190000   3407.282       98074.803      1135.6956      99048.61       97568.192      97607.607     -117.19316      1182.7585      205.20256      7046.3718      3756.1449      10802.517      170632.45      44.022755      44.022755      88.045509          16000 
    191000   3401.7697      99966.09       1142.0308      100311.03      99620.28       99966.955      1100.3359      1565.0071     -713.91535      7034.9722      3692.4481      10727.42       170332.84      43.996973      43.996973      87.993945          16000 
    192000   3420.5002      98190.004      1148.3704      98982.999      99375.708      96211.304     -437.97058      1324.1039     -666.45959      7073.7075      3744.0556      10817.763      170673.81      44.026311      44.026311      88.052621          16000 
    193000   3369.1021      100428.42      1154.7087      101673.75      99580.883      100030.63     -2829.7536     -1064.7761     -3221.2233      6967.4146      3722.2232      10689.638      170398.84      44.002654      44.002654      88.005309          16000 
    194000   3407.0108      101387.47      1161.0444      101081.23      101193.15      101888.02      459.75319      1317.5194      345.06633      7045.8111      3762.0865      10807.898      170358.59      43.99919       43.99919       87.99838           16000 
    195000   3367.1376      100480.1       1167.3843      101905.31      100820.66      98714.333     -1887.9302     -941.26103      220.26865      6963.3519      3874.5208      10837.873      170551.89      44.015825      44.015825      88.031651          16000 
    196000   3418.0587      99155.377      1173.7202      99656.364      100025.17      97784.6       -782.41295      680.97543     -232.72958      7068.6584      3758.2349      10826.893      170589.22      44.019036      44.019036      88.038072          16000 
    197000   3398.2696      100312.56      1180.0615      101348.18      99539.804      100049.68      1056.1715     -2994.5433     -634.07621      7027.7339      3782.344       10810.078      170481.04      44.009729      44.009729      88.019459          16000 
    198000   3376.5701      101364.76      1186.3984      101175.39      102202.44      100716.44     -487.82408      863.58058     -766.2005       6982.8587      3833.3921      10816.251      170387.89      44.001712      44.001712      88.003424          16000 
    199000   3433.0634      104301.74      1192.7344      103914.65      103742.97      105247.6      -921.41714     -364.98008      76.826913      7099.6886      3779.2227      10878.911      170289.68      43.993257      43.993257      87.986514          16000 
    200000   3396.0414      102550.32      1199.0765      101448.58      101528.71      104673.68      1744.7139     -62.020808      35.966192      7023.1258      3745.0977      10768.223      170141.35      43.98048       43.98048       87.960959          16000 
    201000   3394.3692      104369.41      1205.4119      104279.74      104187.89      104640.6      -37.53405       409.95133     -937.19328      7019.6677      3857.2039      10876.872      170167.98      43.982774      43.982774      87.965547          16000 
    202000   3402.7299      106071.42      1211.7464      105764.31      107592.93      104857.01     -2160.7664     -1856.5574      709.07172      7036.958       3791.6634      10828.621      170016.81      43.969746      43.969746      87.939493          16000 
    203000   3411.0693      103980.07      1218.09        103020.46      104450.8       104468.94     -636.56354      2199.9459      1622.515       7054.204       3736.9245      10791.128      170131.14      43.9796        43.9796        87.9592            16000 
    204000   3434.8482      102367.62      1224.4242      102030.8       102881.78      102190.28      559.34192      1989.8061      2538.3689      7103.3796      3816.0533      10919.433      170328.77      43.996623      43.996623      87.993245          16000 
    205000   3394.1728      103229.96      1230.7447      104225         103503.47      101961.4      -112.19693      325.45063      1338.2148      7019.2615      3696.0511      10715.313      170090.55      43.976101      43.976101      87.952203          16000 
    206000   3411.7342      101862.06      1237.0727      102072.52      102901.56      100612.12     -975.2949      -2259.2856     -927.28291      7055.5791      3792.3338      10847.913      170420.86      44.00455       44.00455       88.009101          16000 
    207000   3391.497       100122.98      1243.4076      99068.5        100830.9       100469.54     -1479.6452      1023.1121     -2077.6218      7013.728       3766.8639      10780.592      170452.98      44.007314      44.007314      88.014629          16000 
    208000   3393.5488      98843.547      1249.7412      99207.548      98570.061      98753.032     -1326.3199      1954.9009      1443.2264      7017.9712      3780.0171      10797.988      170523.15      44.013352      44.013352      88.026705          16000 
    209000   3408.1597      99395.195      1256.0757      99031.309      100373.55      98780.727     -864.20679      177.296        1941.5384      7048.187       3750.4844      10798.671      170432.05      44.005514      44.005514      88.011027          16000 
    210000   3398.1304      100437.44      1262.405       99667.66       101282.08      100362.58     -2430.3863     -130.19022     -1637.7228      7027.446       3730.3857      10757.832      170439.32      44.006139      44.006139      88.012278          16000 
    211000   3433.0076      97226.419      1268.742       95662.342      97907.958      98108.958     -700.33959     -552.09361     -781.47698      7099.5732      3757.3696      10856.943      170697.31      44.028331      44.028331      88.056663          16000 
    212000   3395.3031      95979.969      1275.0772      95591.953      95730.608      96617.344      8.0062391     -1901.1896     -499.66566      7021.5991      3762.3976      10783.997      170757.98      44.033547      44.033547      88.067094          16000 
    213000   3360.9967      96917.689      1281.4104      95064.449      97693.702      97994.915      43.182252     -1351.6421     -2781.0962      6950.6524      3736.6987      10687.351      170714.14      44.029778      44.029778      88.059557          16000 
    214000   3410.1667      98963.855      1287.7476      98915.042      99616.17       98360.354     -1465.2913      1957.2841     -897.48002      7052.3375      3712.5079      10764.845      170519.99      44.01308       44.01308       88.026161          16000 
    215000   3408.2283      94867.662      1294.0796      93640.971      95013.908      95948.109     -598.38117      722.01808     -316.23516      7048.3287      3849.2272      10897.556      170888.39      44.044754      44.044754      88.089508          16000 
    216000   3406.8344      98759.376      1300.4163      97805.799      99034.361      99437.969      688.89281     -1731.4406      33.491037      7045.4462      3709.8724      10755.319      170527.82      44.013754      44.013754      88.027508          16000 
    217000   3386.7413      99540.202      1306.7477      100417.1       99086.349      99117.157      1482.6771     -568.7896      -625.33601      7003.8929      3742.1563      10746.049      170430.44      44.005375      44.005375      88.01075           16000 
    218000   3360.3994      97784.864      1313.0781      97668.511      96354.421      99331.661     -621.42474      277.2662       1187.619       6949.4171      3769.3715      10718.789      170581.69      44.018388      44.018388      88.036777          16000 
    219000   3367.5387      97584.566      1319.4112      97740.475      96986.656      98026.566      417.23983     -836.84239      1058.6378      6964.1813      3850.1954      10814.377      170658.74      44.025015      44.025015      88.05003           16000 
    220000   3409.3865      98561.488      1325.7445      99461.625      97889.467      98333.372      1531.1376      803.17422     -1427.1955      7050.7239      3722.6409      10773.365      170528.78      44.013837      44.013837      88.027673          16000 
    221000   3363.9416      100733.76      1332.0799      101038.27      100017.8       101145.21     -725.88723     -1610.9044     -2962.5848      6956.7424      3736.9545      10693.697      170420.28      44.0045        44.0045        88.009001          16000 
    222000   3383.3624      98168.115      1338.4141      98153.554      99315.51       97035.28      -1620.5424      1134.0853     -796.60098      6996.9053      3835.1784      10832.084      170624.98      44.022112      44.022112      88.044224          16000 
    223000   3397.7604      99838.03       1344.7424      98920.941      100212.77      100380.38     -403.52258     -708.95389     -1470.5804      7026.6809      3771.9586      10798.639      170535.38      44.014405      44.014405      88.02881           16000 
    224000   3410.7748      97188.412      1351.0782      97026.428      98321.341      96217.468     -1943.8635      1530.6594     -1206.1824      7053.5951      3714.9706      10768.566      170674.48      44.026369      44.026369      88.052737          16000 
    225000   3402.827       96577.823      1357.42        96228.202      96696.94       96808.327      130.5541       70.166783     -1174.1143      7037.1587      3659.779       10696.938      170633.94      44.022882      44.022882      88.045764          16000 
    226000   3418.4284      97443.237      1363.7491      98100.081      97602.484      96627.147      741.50609      1643.0935     -887.84892      7069.4229      3772.2203      10841.643      170723.7       44.0306        44.0306        88.0612            16000 
    227000   3413.2121      96058.851      1370.0838      96054.027      95941.141      96181.385      1541.1251      424.71653     -2159.5688      7058.6355      3816.2197      10874.855      170835.08      44.040173      44.040173      88.080346          16000 
    228000   3422.6579      97098.748      1376.4245      96663.345      98200.158      96432.743      717.28255     -1516.9472      153.08087      7078.1696      3639.65        10717.82       170560.3       44.016549      44.016549      88.033097          16000 
    229000   3374.7581      97447.764      1382.7679      97397.418      97923.382      97022.493      663.92381     -744.28546      1397.0948      6979.1113      3821.3829      10800.494      170705.86      44.029067      44.029067      88.058134          16000 
    230000   3373.4379      99462.11       1389.1111      99147.837      99893.214      99345.277     -1521.9597     -1347.4673     -866.42492      6976.3812      3736.0369      10712.418      170477.54      44.009428      44.009428      88.018856          16000 
    231000   3394.912       102416.6       1395.4537      101483.95      103586.01      102179.84      73.22823      -1664.5909      2499.9116      7020.7903      3740.7164      10761.507      170317.9       43.995686      43.995686      87.991373          16000 
    232000   3442.3351      101584.72      1401.7914      101582.71      101546.27      101625.19     -470.20136     -1128.4472      1221.5563      7118.8628      3778.7898      10897.653      170483.1       44.009906      44.009906      88.019813          16000 
    233000   3390.3196      102323.61      1408.1374      103599.2       101155.23      102216.38     -404.36373     -2497.4862     -194.61395      7011.2931      3772.5238      10783.817      170219.48      43.98721       43.98721       87.974421          16000 
    234000   3444.306       101974.19      1414.4823      102333.94      101345.45      102243.18     -931.19145      100.98759     -1302.0246      7122.9387      3814.8555      10937.794      170431.36      44.005453      44.005453      88.010907          16000 
    235000   3409.38        100236.4       1420.8281      100214.38      100538.65      99956.17       2211.9596     -696.49966     -611.07488      7050.7106      3846.3374      10897.048      170545.19      44.015249      44.015249      88.030497          16000 
    236000   3406.2963      99076.092      1427.1753      100231.59      99710.504      97286.183      353.45661      442.44853      159.29762      7044.3334      3713.7186      10758.052      170448.38      44.006919      44.006919      88.013838          16000 
    237000   3491.7589      96515.875      1433.5224      96195.726      97193.263      96158.635      1350.1267      635.51903      124.44114      7221.0728      3831.9817      11053.055      170852.9       44.041704      44.041704      88.083409          16000 
    238000   3411.2398      99508.777      1439.8687      99545.351      99482.441      99498.539      2171.6027     -683.7931       1316.3351      7054.5566      3744.9442      10799.501      170538.72      44.014692      44.014692      88.029385          16000 
    239000   3373.6433      100495.09      1446.2153      99745.608      100751.24      100988.43      163.58037     -2620.7613      554.27225      6976.8059      3725.6354      10702.441      170353.63      43.998763      43.998763      87.997525          16000 
    240000   3396.954       101530.1       1452.5572      100817.27      102522.39      101250.63      107.01812     -356.1383      -1454.0122      7025.0131      3786.1743      10811.187      170415.36      44.004077      44.004077      88.008153          16000 
    241000   3395.3347      102251.15      1458.903       103804.19      102259.51      100689.74     -2126.2178      466.24188      1940.212       7021.6645      3738.0678      10759.732      170180.71      43.98387       43.98387       87.967741          16000 
    242000   3408.8964      99349.024      1465.2448      98750.768      99512.117      99784.187     -185.34204     -59.53859      -863.53361      7049.7104      3750.5513      10800.262      170488.56      44.010376      44.010376      88.020753          16000 
    243000   3414.5746      99961.002      1471.5874      100681.05      99527.72       99674.235      294.08137      392.75169      318.00833      7061.4531      3649.4316      10710.885      170385.86      44.001537      44.001537      88.003075          16000 
    244000   3405.6442      94018.606      1477.9299      95074.577      93591.571      93389.669     -377.60011      510.59334      97.527042      7042.9849      3791.8128      10834.798      170885.09      44.044471      44.044471      88.088941          16000 
    245000   3374.3126      96640.614      1484.2677      96687.692      96402.244      96831.905      1190.2235     -442.87275      2012.3659      6978.19        3659.1909      10637.381      170608.51      44.020695      44.020695      88.041391          16000 
    246000   3414.335       96249.052      1490.6096      95555.38       96088.976      97102.799      2190.8057     -423.00076     -1190.4716      7060.9576      3768.2289      10829.186      170782.53      44.035657      44.035657      88.071315          16000 
    247000   3381.5428      98888.691      1496.9471      99406.552      98227.134      99032.385     -352.08323      821.13152     -644.86725      6993.1423      3687.9357      10681.078      170453.94      44.007397      44.007397      88.014794          16000 
    248000   3422.0959      98250.662      1503.2873      98023.14       98887.572      97841.275      628.8457      -2254.7614     -298.81204      7077.0075      3689.4414      10766.449      170593.9       44.019439      44.019439      88.038878          16000 
    249000   3410.5035      96282.914      1509.6307      96381.601      96162.106      96305.036     -479.79763      932.61447     -185.43245      7053.0339      3813.9418      10866.976      170788.55      44.036175      44.036175      88.072349          16000 
    250000   3383.3091      102013.11      1515.968       101887.3       101887.37      102264.66      861.79462     -12.754367     -963.94611      6996.7952      3727.8731      10724.668      170261.41      43.990822      43.990822      87.981644          16000 
    251000   3414.3915      98450.05       1522.3135      99381.93       98346.908      97621.311     -497.59463      1526.8002      327.46597      7061.0744      3760.4691      10821.544      170623.11      44.021951      44.021951      88.043903          16000 
    252000   3402.7728      100227.12      1528.6561      100154.68      100721.89      99804.787      722.84798     -20.598238     -63.87097       7037.0466      3744.3839      10781.43       170504.07      44.011711      44.011711      88.023421          16000 
    253000   3357.4083      99506.294      1534.9992      99396.201      99141.281      99981.4       -818.3463      -1234.2776      669.27953      6943.2315      3724.9574      10668.189      170451.6       44.007196      44.007196      88.014392          16000 
    254000   3426.3441      97130.189      1541.3413      97406.496      97198.694      96785.375      1176.5424     -64.311113      331.2099       7085.7929      3706.4892      10792.282      170646.51      44.023963      44.023963      88.047926          16000 
    255000   3403.1805      98469.969      1547.6834      98526.563      97839.888      99043.456      496.92751     -1416.3473      2197.5255      7037.8899      3791.3425      10829.232      170606.7       44.020539      44.020539      88.041078          16000 
    256000   3411.5275      99624.111      1554.0258      100760.3       99058.792      99053.247     -602.20988     -1031.9919      622.53547      7055.1516      3709.8455      10764.997      170557.59      44.016316      44.016316      88.032631          16000 
    257000   3391.6332      99064.467      1560.3725      99727.307      98560.117      98905.976      841.24578      399.23556      93.563872      7014.0097      3834.983       10848.993      170651.75      44.024414      44.024414      88.048828          16000 
    258000   3419.4466      100319.04      1566.7186      100520.81      100035.8       100400.5       919.11069     -718.13626     -2317.2993      7071.5287      3658.1725      10729.701      170302.57      43.994366      43.994366      87.988733          16000 
    259000   3436.3308      101584.18      1573.0656      101971.65      101479.72      101301.17     -66.490735     -305.47431      845.32031      7106.4457      3728.4404      10834.886      170386.04      44.001553      44.001553      88.003106          16000 
    260000   3397.8286      102113.9       1579.4169      102838.33      101799.77      101703.61      190.54053      263.65781     -1246.6513      7026.822       3717.1115      10743.933      170226.94      43.987853      43.987853      87.975707          16000 
    261000   3404.921       102034.36      1585.7603      102695.37      100410.69      102997.03      500.86439     -1608.0946      2401.5108      7041.4892      3746.6508      10788.14       170336.49      43.997287      43.997287      87.994574          16000 
    262000   3437.746       102293.05      1592.1109      102002.45      102199.05      102677.66      1080.9602     -166.86184     -6.9850014      7109.3724      3784.3172      10893.69       170436.07      44.005859      44.005859      88.011718          16000 
    263000   3433.0122      100314.16      1598.4584      101187.41      99557.238      100197.83      1082.1914     -984.53292     -73.64567       7099.5828      3764.8594      10864.442      170412.88      44.003863      44.003863      88.007727          16000 
    264000   3415.5011      102442.64      1604.8015      101266.13      102387.24      103674.55      793.46942     -194.83461      31.166138      7063.3692      3732.7278      10796.097      170263.17      43.990974      43.990974      87.981948          16000 
    265000   3374.453       101939.26      1611.1404      101580.83      103049.36      101187.59      955.64272     -916.8479       1279.7232      6978.4804      3703.8104      10682.291      170294.36      43.993659      43.993659      87.987318          16000 
    266000   3402.5483      98697.638      1617.4822      98404.19       99220.743      98467.982      561.77411     -500.49571      160.98059      7036.5824      3815.2001      10851.783      170641.6       44.023541      44.023541      88.047083          16000 
    267000   3376.5237      98727.03       1623.8219      98126.202      99101.563      98953.325      313.78072     -2092.6219     -1120.9478      6982.7626      3855.9928      10838.755      170690.79      44.027771      44.027771      88.055541          16000 
    268000   3352.1249      98620.718      1630.1643      97638.594      99190.158      99033.402     -88.629874      1594.5521     -313.14169      6932.3051      3749.382       10681.687      170442.47      44.00641       44.00641       88.01282           16000 
    269000   3415.0567      96041.141      1636.5036      94938.955      97714.614      95469.856     -90.160787     -497.66922     -1008.4822      7062.4502      3755.2586      10817.709      170776.49      44.035138      44.035138      88.070276          16000 
    270000   3401.2878      95425.568      1642.8485      94591.952      95428.818      96255.933     -473.63338      1383.8587      2553.7734      7033.9756      3768.9658      10802.941      170884.5       44.04442       44.04442       88.08884           16000 
    271000   3392.0866      96932.321      1649.1948      97434.341      96646.62       96716.002      544.14774      170.02083     -775.08719      7014.9472      3706.7715      10721.719      170681.18      44.026945      44.026945      88.05389           16000 
    272000   3403.921       96619.629      1655.5396      96594.499      95949.196      97315.191     -2273.9708     -351.52049      713.20198      7039.4212      3771.9001      10811.321      170736.36      44.031689      44.031689      88.063377          16000 
    273000   3404.8305      98369.614      1661.8795      100258.16      97770.805      97079.881      233.6349       859.80552      1312.4329      7041.3021      3695.8166      10737.119      170570.35      44.017413      44.017413      88.034826          16000 
    274000   3385.9803      97698.775      1668.2264      96440.78       98544.716      98110.829     -308.68836     -220.05032     -1409.9271      7002.3193      3717.6199      10719.939      170581.12      44.018339      44.018339      88.036679          16000 
    275000   3417.2212      97466.677      1674.5655      98059.796      96773.503      97566.732      1366.2358     -1375.2004      399.03542      7066.9264      3864.9983      10931.925      170815.03      44.03845       44.03845       88.0769            16000 
    276000   3381.9995      96726.985      1680.903       96906.533      97013.1        96261.323     -617.63921      332.57809      657.41246      6994.0868      3716.506       10710.593      170688.55      44.027578      44.027578      88.055156          16000 
    277000   3381.4562      98873.057      1687.2435      98955.294      99718.903      97944.973     -69.187117      1626.656       2137.3385      6992.9632      3760.3637      10753.327      170459.72      44.007895      44.007895      88.01579           16000 
    278000   3386.9563      101768.11      1693.5656      100757.64      102422.1       102124.59      1609.7415     -4054.4094     -414.20682      7004.3376      3807.0657      10811.403      170396.82      44.002481      44.002481      88.004962          16000 
    279000   3369.2853      102226.23      1699.9061      103403.58      101178.19      102096.93      57.775568     -674.27163      769.16607      6967.7934      3817.1664      10784.96       170332.05      43.996905      43.996905      87.993809          16000 
    280000   3378.6795      102285.13      1706.2455      103102.94      101464.39      102288.04     -3028.0316      820.72956      1226.4016      6987.221       3852.2393      10839.46       170431.39      44.005456      44.005456      88.010912          16000 
    281000   3397.0976      106296.85      1712.5925      106607.68      105436.25      106846.6      -745.47369     -1710.2981     -90.87493       7025.3101      3744.6669      10769.977      170031.11      43.970979      43.970979      87.941957          16000 
    282000   3396.9267      101599.17      1718.9373      101631.87      102308.37      100857.28      2918.3868      335.43502      1248.4024      7024.9567      3821.3415      10846.298      170432.18      44.005524      44.005524      88.011049          16000 
    283000   3390.814       102588.62      1725.2773      103605.46      101713.29      102447.1      -1019.0223      1695.6026     -1010.0592      7012.3155      3766.6542      10778.97       170254.3       43.99021       43.99021       87.98042           16000 
    284000   3385.7002      101817.96      1731.6249      101953.93      102390.77      101109.17      2866.0505      950.5459       195.37447      7001.74        3830.6515      10832.392      170313.87      43.99534       43.99534       87.990679          16000 
    285000   3380.9479      101804.08      1737.9678      102002.45      100331.83      103077.96     -1996.7703     -1884.4908      719.59503      6991.912       3766.8632      10758.775      170293.34      43.993572      43.993572      87.987143          16000 
[...]
   3930000   3214.341       100044.92      6389.9379      89247.899      98995.514      111891.35     -49.469826     -1151.4479      784.00402      6647.3635      10049.165      16696.529      185948.68      44.944917      44.944917      92.051728          16000 
   3931000   3175.9591      97390.346      6396.7317      84262.625      96973.875      110934.54     -509.35223     -3280.7206     -622.82633      6567.9884      10113.353      16681.342      186191.96      44.964509      44.964509      92.091854          16000 
   3932000   3247.1556      103051.89      6403.5249      89405.929      102006.8       117742.95     -1049.3889     -1386.3839     -2198.5837      6715.2251      9987.8773      16703.102      185840.22      44.936176      44.936176      92.033827          16000 
   3933000   3210.3845      102449.37      6410.3185      92112.323      99273.488      115962.29     -122.8333      -410.28001     -713.04915      6639.1812      10085.148      16724.329      185471.29      44.906421      44.906421      91.972885          16000 
   3934000   3198.8604      98379.612      6417.0998      85562.82       96760.845      112815.17     -1411.2954      2121.8569     -1528.5906      6615.349       10059.397      16674.746      186259.5       44.969945      44.969945      92.102988          16000 
   3935000   3209.6947      104508.39      6423.8818      90111.497      103587.87      119825.79      462.87696      2627.1917     -2042.5685      6637.7547      10080.465      16718.22       185551.43      44.912888      44.912888      91.98613           16000 
   3936000   3201.4939      101782.82      6430.6585      90039.107      100223.59      115085.77      384.47768     -1990.9279     -285.67607      6620.7952      10048.046      16668.842      186315.9       44.974483      44.974483      92.112284          16000 
   3937000   3215.0424      100542.23      6437.4432      86892.568      102208.95      112525.15      431.10648     -1573.9145     -2117.2138      6648.814       10047.799      16696.613      185854.51      44.937328      44.937328      92.036185          16000 
   3938000   3217.0478      101234.99      6444.2277      86294.906      99293.554      118116.5      -1814.4456     -2308.2682      163.11406      6652.9613      10052.893      16705.854      185704.02      44.925196      44.925196      92.011338          16000 
   3939000   3216.0462      98344.899      6451.0061      84667.707      96523.945      113843.04     -911.24745     -577.48324      1320.7076      6650.8898      10023.106      16673.996      186206.1       44.965647      44.965647      92.094185          16000 
   3940000   3237.1342      99442.579      6457.8035      84342.611      99987.81       113997.32     -1360.5541      470.12322      2595.6819      6694.5006      9998.1941      16692.695      185898.24      44.940853      44.940853      92.043404          16000 
   3941000   3246.4953      102437.84      6464.592       89142.234      99967.59       118203.71     -1272.0783      135.88732     -615.86806      6713.8595      9979.9948      16693.854      185873.51      44.93886       44.93886       92.039323          16000 
   3942000   3206.9407      97421.603      6471.3821      82428.556      95887.314      113948.94     -891.76036     -575.0729       1075.8688      6632.0593      10025.297      16657.356      186459.7       44.986051      44.986051      92.135976          16000 
   3943000   3213.9866      101564.17      6478.1757      89348.257      98946.092      116398.15     -140.95532     -2675.3321      187.29485      6646.6305      10050.182      16696.812      185827.44      44.935146      44.935146      92.031717          16000 
   3944000   3199.6271      99658.884      6484.9646      85019.396      100264.8       113692.46      3295.3758      693.44426     -706.62057      6616.9345      10058.763      16675.697      186160.37      44.961966      44.961966      92.086646          16000 
   3945000   3234.705       97899.78       6491.7543      84684.386      98785.001      110229.95      2381.5131      1655.7861     -1185.7935      6689.477       9975.6348      16665.112      186323.46      44.975092      44.975092      92.113529          16000 
   3946000   3219.8308      105255.46      6498.5392      90656.393      105072.35      120037.63      1433.7799     -146.75505      865.96768      6658.7165      10046.796      16705.513      185673.35      44.922723      44.922723      92.006273          16000 
   3947000   3200.6874      97273.11       6505.3231      82897.649      95429.568      113492.11      1018.9998      2925.9612     -1481.6597      6619.1273      10051.12       16670.247      186238.44      44.96825       44.96825       92.099517          16000 
   3948000   3245.2009      99238.189      6512.112       85376.275      99640.394      112697.9       570.8419       130.47391      2634.7217      6711.1827      9973.2703      16684.453      186011.23      44.949955      44.949955      92.062048          16000 
   3949000   3203.5922      99270.097      6518.8945      84744.131      99627.273      113438.89     -402.25082     -394.77392     -1991.3407      6625.1347      10039.13       16664.265      186332.48      44.975818      44.975818      92.115016          16000 
   3950000   3240.6028      100716.14      6525.6745      89096.962      95733.633      117317.81     -952.52756      250.21001     -2706.5154      6701.6738      9991.2357      16692.91       185876.58      44.939107      44.939107      92.039828          16000 
   3951000   3232.5136      104050.28      6532.4521      92838.725      104060.67      115251.44      1312.2048     -99.007308      290.76705      6684.945       10010.531      16695.476      185829.54      44.935316      44.935316      92.032065          16000 
   3952000   3251.7649      102688.87      6539.2273      87876.069      101039.66      119150.88      210.24648      1658.0886      3438.3474      6724.7573      9966.2655      16691.023      185888.6       44.940075      44.940075      92.041812          16000 
   3953000   3240.1057      101690         6546.0093      89689.813      100492.86      114887.33      427.63289     -1609.4769      755.24969      6700.6457      9993.9382      16694.584      185818.04      44.934389      44.934389      92.030166          16000 
   3954000   3234.1698      96211.605      6552.7819      83149.29       93944.294      111541.23      81.925101     -4253.936      -1301.3255      6688.37        9973.9474      16662.317      186325.84      44.975283      44.975283      92.113921          16000 
   3955000   3226.3831      103544.53      6559.5617      91630.327      102257.74      116745.52      2277.8724      678.7577      -407.10748      6672.2669      10008.286      16680.553      186023.13      44.950914      44.950914      92.064011          16000 
   3956000   3193.4635      101317.21      6566.3348      86068.216      97954.385      119929.02      2800.5068     -2420.0893      2512.1457      6604.188       10074.87       16679.058      186045.13      44.952686      44.952686      92.06764           16000 
   3957000   3223.5272      102386.07      6573.1102      88514.433      99678.113      118965.67     -802.28329     -172.97032      1902.9659      6666.3609      10033.693      16700.054      185703.53      44.925156      44.925156      92.011256          16000 
   3958000   3218.8668      99783.554      6579.902       87087.559      100825.25      111437.85      937.57823     -2211.4499      2715.8803      6656.723       10024.274      16680.997      185999.61      44.949019      44.949019      92.060131          16000 
   3959000   3214.7594      103108.86      6586.6841      91003.82       100431.89      117890.88      3938.3947      2104.9493      2807.7372      6648.2287      10041.659      16689.888      185851.14      44.937056      44.937056      92.03563           16000 
   3960000   3230.3895      96311.122      6593.4762      84091.414      92890.094      111951.86      3356.7123      457.02209     -239.61745      6680.5523      9982.1261      16662.678      186284.16      44.971929      44.971929      92.107053          16000 
   3961000   3219.8717      100112.54      6600.2511      86069.123      98931.789      115336.7      -2323.2251      1047.2124     -1494.109       6658.8012      10013.325      16672.126      186109.01      44.957831      44.957831      92.078177          16000 
   3962000   3189.0716      98936.446      6607.028       83306.853      98431.665      115070.82     -139.00242      1448.9769      1697.1262      6595.1055      10069.145      16664.251      186236.01      44.968054      44.968054      92.099116          16000 
   3963000   3224.6076      103494.86      6613.8083      91078.616      102371.93      117034.02     -1143.7775      1178.1931      1661.8151      6668.5951      10040.319      16708.915      185510.48      44.909584      44.909584      91.979363          16000 
   3964000   3207.5513      97030.506      6620.5866      84816.058      94249.363      112026.1       1510.3817      887.5336       1261.2428      6633.3221      10028.195      16661.518      186255.52      44.969625      44.969625      92.102333          16000 
   3965000   3216.0907      99112.471      6627.3652      85379.124      97989.671      113968.62      1678.5312     -23.090218      113.59886      6650.982       10008.861      16659.843      186277.16      44.971366      44.971366      92.105899          16000 
   3966000   3209.7351      98965.881      6634.1426      84845.742      97694.775      114357.12     -2767.558      -458.49994      2381.7197      6637.8384      10014.13       16651.968      186371.52      44.978959      44.978959      92.12145           16000 
   3967000   3190.4217      99608.393      6640.9282      83333.68       100208.22      115283.28      83.162892      705.26123     -999.04456      6597.8976      10060.2        16658.098      186272.75      44.971012      44.971012      92.105173          16000 
   3968000   3180.3407      101127.07      6647.7087      86718.998      98225.99       118436.21      610.77248     -1637.9056     -1722.0354      6577.0497      10065.933      16642.983      186507.44      44.98989       44.98989       92.143837          16000 
   3969000   3221.708       99260.115      6654.4933      87416.785      98178.44       112185.12     -1253.6864     -1050.5836      3585.1127      6662.5986      9975.3243      16637.923      186582.2       44.995901      44.995901      92.156149          16000 
   3970000   3225.1215      101994.24      6661.2791      91986.946      100131.01      113864.75     -3065.4572     -1374.6812     -1339.5883      6669.6579      10013.633      16683.291      185838.26      44.936018      44.936018      92.033504          16000 
   3971000   3194.7884      101715         6668.0572      88555.714      101535.14      115054.15      1312.6479     -1504.7147     -835.69188      6606.9281      10052.617      16659.545      186224.36      44.967117      44.967117      92.097196          16000 
   3972000   3194.0451      99244.285      6674.8298      84909.294      99905.024      112918.54      1629.2322     -1146.3968     -699.44356      6605.3908      10045.673      16651.063      186347.56      44.977031      44.977031      92.117501          16000 
   3973000   3210.3107      99833.038      6681.6025      86957.087      98203.365      114338.66     -282.43543     -925.53304     -3013.8469      6639.0287      10018.849      16657.878      186233         44.967812      44.967812      92.098621          16000 
   3974000   3200.3566      102392.75      6688.3791      86764.077      103882.52      116531.67     -1213.6633     -1465.4061     -1649.6071      6618.4432      10045.79       16664.233      186126.72      44.959256      44.959256      92.081097          16000 
   3975000   3199.2823      98993.33       6695.1582      84911.551      100283.65      111784.79     -777.32215      877.22247     -208.01367      6616.2215      10016.414      16632.635      186635.9       45.000217      45.000217      92.164988          16000 
   3976000   3197.2096      100415.06      6701.9366      85822.735      101957.48      113464.98     -883.19308      626.8528      -1315.519       6611.9352      10033.539      16645.474      186424.57      44.983226      44.983226      92.130189          16000 
   3977000   3195.9965      100172.97      6708.7171      85917.255      99548.594      115053.07      1482.8595      1186.1765      943.8113       6609.4265      10050.448      16659.874      186200.79      44.96522       44.96522       92.093311          16000 
   3978000   3218.1444      98540.428      6715.4936      83461.401      97987.095      114172.79      1541.525      -2143.2115      758.95503      6655.2291      9983.0205      16638.25       186532.96      44.991942      44.991942      92.14804           16000 
   3979000   3226.6566      99510.571      6722.2733      85436.57       101283.51      111811.63      1651.289       1266.9208      423.28636      6672.8325      9980.1696      16653.002      186304.65      44.973578      44.973578      92.110429          16000 
   3980000   3218.9646      100157.84      6729.0506      85980.841      100312.02      114180.65     -2421.428       1408.9399      1657.8284      6656.9253      9995.5714      16652.497      186304.09      44.973533      44.973533      92.110337          16000 
   3981000   3192.7675      102818.79      6735.8359      89874.962      106818.08      111763.34     -1742.3186     -3368.438      -1762.8668      6602.7488      10069.288      16672.036      185995.8       44.948712      44.948712      92.059502          16000 
   3982000   3217.863       98970.586      6742.624       85435.42       100128.99      111347.35     -2384.8207     -841.88175     -128.43046      6654.6471      9998.4613      16653.108      186293.34      44.972668      44.972668      92.108565          16000 
   3983000   3190.0521      98881.5        6749.4055      85323.173      98173.717      113147.61      2898.915      -1693.07       -652.12634      6597.1332      10047.455      16644.588      186423.69      44.983155      44.983155      92.130044          16000 
   3984000   3215.9259      98731.011      6756.1862      84856.918      97865.549      113470.57      122.91167     -1037.6293     -631.62729      6650.6411      9990.1431      16640.784      186477.67      44.987496      44.987496      92.138935          16000 
   3985000   3276.1129      103084.94      6762.9663      88701.151      106222.54      114331.14      557.56784     -980.01287      2245.7999      6775.1099      9906.2839      16681.394      185814.63      44.934114      44.934114      92.029602          16000 
   3986000   3224.969       99206.986      6769.7415      85522.137      96662.142      115436.68      1436.8006      2439.5056     -603.33023      6669.3424      9979.5914      16648.934      186331.82      44.975765      44.975765      92.114908          16000 
   3987000   3206.255       100950.21      6776.5184      87585.033      99123.896      116141.71      1072.4306     -958.96418     -679.91634      6630.6414      10020.761      16651.402      186288.17      44.972252      44.972252      92.107714          16000 
   3988000   3230.1937      99598.186      6783.2839      83080.649      99417.778      116296.13     -225.85624      516.44084     -408.5734       6680.1473      9974.7885      16654.936      186224.14      44.967099      44.967099      92.09716           16000 
   3989000   3222.1025      98816.815      6790.0661      86201.033      98166.637      112082.77      69.56073       2834.4455     -607.18335      6663.4145      9997.2233      16660.638      186127.95      44.959355      44.959355      92.0813            16000 
   3990000   3224.5159      98033.515      6796.8414      83554.111      97109.754      113436.68      2004.9654     -1306.4201     -22.056403      6668.4055      9985.0515      16653.457      186241.36      44.968485      44.968485      92.099998          16000 
   3991000   3194.1027      101232.51      6803.6201      84656.867      102191.29      116849.37     -1691.9101     -1185.0081      71.887976      6605.51        10047.154      16652.664      186241.94      44.968531      44.968531      92.100093          16000 
   3992000   3199.999       101386.21      6810.4028      86700.627      99192.79       118265.23     -1184.6602      1854.5148      2879.1296      6617.7037      10043.276      16660.979      186113.11      44.958161      44.958161      92.078853          16000 
   3993000   3192.6654      100936.22      6817.1725      85510.446      99750.425      117547.79      2393.439       2750.9222      1972.3647      6602.5376      10042.851      16645.389      186355.61      44.977678      44.977678      92.118827          16000 
   3994000   3194.6248      96350.975      6823.9548      81689.668      96630.335      110732.92     -869.05497      143.10778      690.23193      6606.5896      10024.534      16631.124      186590.08      44.996534      44.996534      92.157445          16000 
   3995000   3195.2161      97089.494      6830.7189      79632.172      97136.325      114499.98     -2210.8511      165.07558      47.160149      6607.8126      10020.243      16628.055      186641.82      45.000693      45.000693      92.165963          16000 
   3996000   3162.2216      101192.9       6837.4889      85591.073      102290.93      115696.71      204.51784     -1030.8067     -2632.5177      6539.5787      10101.257      16640.836      186435.15      44.984077      44.984077      92.131932          16000 
   3997000   3206.5088      103106.13      6844.2572      86936.109      102932         119450.28     -571.78538     -888.39468     -3573.1856      6631.1661      10048.275      16679.442      185824.21      44.934886      44.934886      92.031184          16000 
   3998000   3206.4838      101771.29      6851.0223      88118.897      102217.58      114977.41      2682.6292      740.29223      898.37011      6631.1146      10027.344      16658.458      186150.76      44.961192      44.961192      92.085061          16000 
   3999000   3195.8921      96989.709      6857.7913      81594.43       98333.252      111041.45      1654.2282     -252.94472     -246.34306      6609.2104      10033.017      16642.228      186401.16      44.981343      44.981343      92.126333          16000 
   4000000   3206.8647      98562.423      6864.567       85332.406      100473.6       109881.27     -3824.901      -1248.62        998.19022      6631.9022      10034.064      16665.966      186020.05      44.950666      44.950666      92.063503          16000 
Loop time of 6864.57 on 8 procs for 1000000 steps with 16000 atoms

Performance: 6.293 ns/day, 3.814 hours/ns, 145.676 timesteps/s
59.8% CPU use with 1 MPI tasks x 8 OpenMP threads

MPI task timing breakdown:
Section |  min time  |  avg time  |  max time  |%varavg| %total
---------------------------------------------------------------
Pair    | 6572.2     | 6572.2     | 6572.2     |   0.0 | 95.74
Neigh   | 11.247     | 11.247     | 11.247     |   0.0 |  0.16
Comm    | 42.581     | 42.581     | 42.581     |   0.0 |  0.62
Output  | 2.2028     | 2.2028     | 2.2028     |   0.0 |  0.03
Modify  | 209.98     | 209.98     | 209.98     |   0.0 |  3.06
Other   |            | 26.34      |            |       |  0.38

Nlocal:          16000 ave       16000 max       16000 min
Histogram: 1 0 0 0 0 0 0 0 0 0
Nghost:          13492 ave       13492 max       13492 min
Histogram: 1 0 0 0 0 0 0 0 0 0
Neighs:              0 ave           0 max           0 min
Histogram: 1 0 0 0 0 0 0 0 0 0
FullNghs:  1.31912e+06 ave 1.31912e+06 max 1.31912e+06 min
Histogram: 1 0 0 0 0 0 0 0 0 0

Total # of neighbors = 1319120
Ave neighs/atom = 82.445
Neighbor list builds = 30885
Dangerous builds = 0
Total wall time: 7:05:26
