
atom_style atomic
units metal
boundary p p p
#atom_modify sort 0 0.0
newton on

read_data data.lammps
Reading data file ...
  triclinic box = (0 0 0) to (4.3790145 4.3790145 4.3790145) with tilt (-0 0 0)
  1 by 1 by 1 MPI processor grid
  reading atoms ...
  8 atoms
  read_data CPU = 0.001 seconds
replicate 10 10 20
Replicating atoms ...
  triclinic box = (0 0 0) to (43.790145 43.790145 87.58029) with tilt (-0 0 0)
  1 by 1 by 1 MPI processor grid
  16000 atoms
  replicate CPU = 0.007 seconds

### interactions

pair_style flare
pair_coeff * * lmp.flare
Reading potential file lmp.flare with DATE: Thu

# compute unc all flare/std/atom L_inv_lmp.flare sparse_desc_lmp.flare
# compute MaxUnc all reduce max c_unc

mass 1 12.011000
mass 2 28.085000

thermo_style custom step temp press cpu pxx pyy pzz pxy pxz pyz ke pe etotal vol lx ly lz atoms    #c_MaxUnc
thermo 1000
timestep 0.0005
restart 100000 restart_*.dat

#################### Equilibrate at P and T_es ##############################
velocity all create $T 41928459 rot yes dist gaussian
velocity all create 2800 41928459 rot yes dist gaussian
fix mom all momentum 1000 linear 1 1 1 angular

fix 1 all npt temp $T $T $(100.0*dt) iso $P $P $(1000.0*dt)
fix 1 all npt temp 2800 $T $(100.0*dt) iso $P $P $(1000.0*dt)
fix 1 all npt temp 2800 2800 $(100.0*dt) iso $P $P $(1000.0*dt)
fix 1 all npt temp 2800 2800 0.050000000000000002776 iso $P $P $(1000.0*dt)
fix 1 all npt temp 2800 2800 0.050000000000000002776 iso 100000 $P $(1000.0*dt)
fix 1 all npt temp 2800 2800 0.050000000000000002776 iso 100000 100000 $(1000.0*dt)
fix 1 all npt temp 2800 2800 0.050000000000000002776 iso 100000 100000 0.5
dump 1 all custom 1000 1equil.bin id type x y z vx vy vz
run   10000 # report performance
Neighbor list info ...
  update every 1 steps, delay 10 steps, check yes
  max neighbors/atom: 2000, page size: 100000
  master list distance cutoff = 6
  ghost atom cutoff = 6
  binsize = 6, bins = 8 8 15
  1 neighbor lists, perpetual/occasional/extra = 1 0 0
  (1) pair flare/kk, perpetual
      attributes: full, newton on, kokkos_device
      pair build: full/bin/kk/device
      stencil: full/bin/3d
      bin: kk/device
Per MPI rank memory allocation (min/avg/max) = 15.9 | 15.9 | 15.9 Mbytes
   Step          Temp          Press           CPU            Pxx            Pyy            Pzz            Pxy            Pxz            Pyz           KinEng         PotEng         TotEng         Volume           Lx             Ly             Lz          Atoms   
         0   2800           55537.333      0              55258.481      55664.454      55689.064     -388.53912      174.99747     -439.29551      5790.4926     -4109.4047      1681.0878      167941.93      43.790145      43.790145      87.58029           16000 
      1000   2752.3305      99081.737      6.4884529      99234.222      99400.309      98610.68      -934.97334     -1542.5659     -95.268339      5691.9104      2260.0337      7951.9441      168573.17      43.844941      43.844941      87.689882          16000 
      2000   2846.2106      100258.05      12.942215      101024.7       99194.225      100555.22      1842.2001      1180.5886      1943.836       5886.0577      2204.0336      8090.0913      168691.95      43.855236      43.855236      87.710473          16000 
      3000   2784.5254      100829.47      19.401434      100978.78      100830.78      100678.85     -26.133976     -1285.1319     -1282.6031      5758.4905      2152.8657      7911.3562      168484.79      43.837277      43.837277      87.674553          16000 
      4000   2829.9577      98024.595      25.868544      98605.516      97813.996      97654.275      1463.992      -1802.5847     -537.39456      5852.446       2256.0706      8108.5166      168783         43.863125      43.863125      87.726249          16000 
      5000   2777.0945      100540.13      32.320954      100015.65      100613.98      100990.75     -148.35154      1394.5236      1341.6812      5743.1232      2147.7043      7890.8275      168518.19      43.840173      43.840173      87.680347          16000 
      6000   2827.4536      98578.595      38.772561      99281.981      99560.559      96893.243      1286.0079     -364.72949     -1844.3893      5847.2676      2250.6673      8097.9348      168787.91      43.86355       43.86355       87.727101          16000 
      7000   2757.2016      99702.167      45.220496      100302.62      99601.896      99201.983      1082.223      -749.50351     -884.63059      5701.984       2203.0833      7905.0674      168610.52      43.848179      43.848179      87.696357          16000 
      8000   2797.8885      99568.24       51.670784      100029.45      99537.911      99137.357     -1988.4623      1496.7298     -613.872        5786.126       2260.7939      8046.9199      168722.99      43.857926      43.857926      87.715851          16000 
      9000   2789.3462      104049.06      58.119916      102995.91      104504.8       104646.47      400.77751      414.61993     -371.7793       5768.4602      2257.9994      8026.4596      168321.97      43.823151      43.823151      87.646302          16000 
     10000   2812.0237      103360.76      64.576368      102619.92      103749.02      103713.33     -2126.0277      1887.0815     -2071.5583      5815.358       2220.044       8035.402       168362.3       43.826651      43.826651      87.653302          16000 
Loop time of 64.5764 on 8 procs for 10000 steps with 16000 atoms

Performance: 6.690 ns/day, 3.588 hours/ns, 154.855 timesteps/s
62.3% CPU use with 1 MPI tasks x 8 OpenMP threads

MPI task timing breakdown:
Section |  min time  |  avg time  |  max time  |%varavg| %total
---------------------------------------------------------------
Pair    | 61.282     | 61.282     | 61.282     |   0.0 | 94.90
Neigh   | 0.078077   | 0.078077   | 0.078077   |   0.0 |  0.12
Comm    | 0.46609    | 0.46609    | 0.46609    |   0.0 |  0.72
Output  | 0.024043   | 0.024043   | 0.024043   |   0.0 |  0.04
Modify  | 2.4262     | 2.4262     | 2.4262     |   0.0 |  3.76
Other   |            | 0.2994     |            |       |  0.46

Nlocal:          16000 ave       16000 max       16000 min
Histogram: 1 0 0 0 0 0 0 0 0 0
Nghost:          13612 ave       13612 max       13612 min
Histogram: 1 0 0 0 0 0 0 0 0 0
Neighs:              0 ave           0 max           0 min
Histogram: 1 0 0 0 0 0 0 0 0 0
FullNghs:  1.38989e+06 ave 1.38989e+06 max 1.38989e+06 min
Histogram: 1 0 0 0 0 0 0 0 0 0

Total # of neighbors = 1389886
Ave neighs/atom = 86.867875
Neighbor list builds = 239
Dangerous builds = 0
run  990000
Per MPI rank memory allocation (min/avg/max) = 15.97 | 15.97 | 15.97 Mbytes
   Step          Temp          Press           CPU            Pxx            Pyy            Pzz            Pxy            Pxz            Pyz           KinEng         PotEng         TotEng         Volume           Lx             Ly             Lz          Atoms   
     10000   2812.0237      103360.76      0              102619.92      103749.02      103713.33     -2126.0277      1887.0815     -2071.5583      5815.358       2220.044       8035.402       168362.3       43.826651      43.826651      87.653302          16000 
     11000   2796.4414      100150.61      6.4477723      99648.661      100226.67      100576.52     -823.69408      753.32347     -848.38782      5783.1332      2226.8967      8010.0298      168607.11      43.847883      43.847883      87.695765          16000 
     12000   2795.1035      98043.132      12.905072      99127.442      96999.057      98002.898     -1120.9882     -175.18385      506.94968      5780.3665      2171.6722      7952.0387      168682.09      43.854382      43.854382      87.708764          16000 
     13000   2817.4521      96837.672      19.360574      97734.62       95674.283      97104.112      335.57948      493.4361       640.94544      5826.5841      2220.2018      8046.7859      168895.96      43.872908      43.872908      87.745815          16000 
     14000   2797.568       100317.67      25.811478      100108.81      99383.65       101460.56      845.83998     -1926.6593      10.025055      5785.4631      2162.536       7947.9991      168598.2       43.84711       43.84711       87.694221          16000 
     15000   2791.3938      101470.62      32.267583      101790.54      101130.15      101491.18     -1232.5869      355.22526     -253.81031      5772.6946      2298.256       8070.9506      168510.37      43.839495      43.839495      87.678991          16000 
     16000   2813.4395      104247.13      38.725025      104352.34      103514.42      104874.64      534.79665     -1972.2866     -2084.5378      5818.286       2202.6875      8020.9735      168283.85      43.819843      43.819843      87.639685          16000 
     17000   2794.0332      101609.62      45.171281      100966.3       102649.78      101212.78     -915.76405      38.81863      -1046.0467      5778.1531      2199.7721      7977.9251      168465.28      43.835584      43.835584      87.671169          16000 
     18000   2796.3159      100107.12      51.62467       99886.455      101582.79      98852.114      1157.053       1545.9247      108.5542       5782.8738      2212.3183      7995.1921      168612.62      43.84836       43.84836       87.696721          16000 
     19000   2793.4912      96698.915      58.093764      96367.563      97022.101      96707.08       737.46543     -42.4155       -1245.7241      5777.0321      2261.5744      8038.6064      168862.11      43.869977      43.869977      87.739953          16000 
     20000   2818.5247      97951.739      64.547276      98050.276      98612.811      97192.129     -139.28297      2831.713      -1498.1135      5828.8022      2152.7922      7981.5944      168747.65      43.860062      43.860062      87.720124          16000 
     21000   2767.4281      100924.55      71.001605      100329.98      101574.54      100869.13     -1296.6309      370.8578      -937.47841      5723.1329      2202.2457      7925.3786      168479.39      43.836809      43.836809      87.673617          16000 
     22000   2780.9888      99969.244      77.449399      99408.4        100228.69      100270.64     -206.13938      1276.3121      1296.5919      5751.1768      2311.6051      8062.7818      168672.14      43.853519      43.853519      87.707038          16000 
     23000   2809.4667      100213.83      83.90122       101477.5       99109.909      100054.08     -551.07324     -703.81885      329.96014      5810.0701      2163.9328      7974.0029      168623.21      43.849279      43.849279      87.698557          16000 
     24000   2794.2593      99543.868      90.346084      99542.238      99045.345      100044.02     -1370.8641     -1512.2494     -354.0159       5778.6206      2267.1842      8045.8048      168727.76      43.858339      43.858339      87.716679          16000 
     25000   2738.8789      99032.021      96.787489      99683.302      98028.031      99384.729     -1079.0217     -1355.7516     -760.42125      5664.0921      2263.1655      7927.2576      168699.04      43.855851      43.855851      87.711701          16000 
     26000   2796.2746      98758.374      103.22982      98398.684      99366.294      98510.144     -1131.7252      495.52809      200.72989      5782.7882      2287.7424      8070.5307      168679         43.854114      43.854114      87.708228          16000 
     27000   2773.2989      102321.07      109.6749       102877.87      102082.62      102002.71     -2484.8565     -629.48928     -604.61627      5735.2738      2213.29        7948.5639      168405.95      43.830438      43.830438      87.660876          16000 
     28000   2824.1755      100292.16      116.1132       100734.89      99678.182      100463.41     -535.26958     -150.20419     -345.40463      5840.4883      2194.2657      8034.754       168594.94      43.846828      43.846828      87.693656          16000 
     29000   2832.2874      102239.39      122.56442      102636.73      101681.58      102399.86      231.84713     -113.25534     -402.17114      5857.264       2197.8074      8055.0713      168502.46      43.838809      43.838809      87.677619          16000 
     30000   2796.8473      98685.654      129.01297      98960.68       99059.445      98036.836     -560.0121       1045.1545      401.30458      5783.9727      2121.5627      7905.5354      168611.46      43.84826       43.84826       87.69652           16000 
     31000   2771.8015      94148.076      135.4576       95047.911      94181.959      93214.357      2439.0803     -8.518035       1122.9395      5732.1772      2255.6492      7987.8264      169119.24      43.892233      43.892233      87.784465          16000 
     32000   2778.6342      97256.979      141.89945      96189.928      98523.426      97057.583      205.80965     -447.79971     -448.29317      5746.3074      2147.7923      7894.0997      168807.65      43.86526       43.86526       87.730521          16000 
     33000   2815.5254      100519.51      148.35112      100941.54      99484.577      101132.42      1367.8222      325.18175      508.29107      5822.5995      2152.451       7975.0505      168595.13      43.846844      43.846844      87.693689          16000 
     34000   2805.0434      100174.47      154.81066      99127.093      99704.309      101691.99      513.47054     -495.0662      -79.00197       5800.9226      2213.1428      8014.0654      168628.04      43.849697      43.849697      87.699395          16000 
     35000   2792.6853      101461.85      161.26298      102192.54      100849.6       101343.41      1091.8755      154.23524     -239.76478      5775.3655      2159.1908      7934.5563      168478.87      43.836764      43.836764      87.673528          16000 
     36000   2787.8622      102039.51      167.71525      101122.92      103043.8       101951.82      553.14163     -1246.3724      60.364559      5765.3912      2225.1204      7990.5116      168439.18      43.833321      43.833321      87.666642          16000 
     37000   2815.8722      100768.2       174.17144      100983.01      100739.61      100581.98     -862.04653     -2412.6671     -50.059167      5823.3168      2287.348       8110.6648      168591.67      43.846544      43.846544      87.693088          16000 
     38000   2764.8337      97723.802      180.61678      97680.853      97549.939      97940.612      1653.9237     -2561.1932      1319.5768      5717.7674      2244.7113      7962.4787      168829.19      43.867126      43.867126      87.734252          16000 
     39000   2769.9988      97816.664      187.07654      98632.003      96538.611      98279.378     -1655.0389     -332.19683      132.20212      5728.4491      2138.424       7866.8731      168709.48      43.856755      43.856755      87.71351           16000 
     40000   2799.9193      100945.37      193.54311      100996.01      100796.11      101043.99      1444.5125     -614.73737      2223.839       5790.3256      2240.5905      8030.9161      168507.13      43.839214      43.839214      87.678428          16000 
     41000   2774.8321      103250.94      200.00352      103751.57      102266.76      103734.48      706.22431      799.84593     -501.89117      5738.4446      2228.0172      7966.4618      168269.92      43.818633      43.818633      87.637266          16000 
     42000   2816.9922      101605.13      206.47456      103097.2       101623.8       100094.39     -543.00931     -457.66534      256.29103      5825.633       2168.1347      7993.7678      168438.06      43.833224      43.833224      87.666448          16000 
     43000   2792.9011      100824.09      212.93505      100708.17      101744.42      100019.68     -734.14394     -745.99718      737.23336      5775.8118      2224.5404      8000.3522      168569.84      43.844652      43.844652      87.689304          16000 
     44000   2817.8352      99920.282      219.38614      99517.854      99300.97       100942.02     -1134.7037      865.14326     -1767.8117      5827.3764      2169.0248      7996.4012      168607.58      43.847924      43.847924      87.695847          16000 
     45000   2810.7122      99982.377      225.84577      98947.243      100348.15      100651.73      34.531978      943.70755      474.01284      5812.6458      2186.7114      7999.3572      168633.52      43.850173      43.850173      87.700345          16000 
     46000   2766.777       98038.656      232.30135      98452.531      98960.825      96702.612     -59.508887     -2061.6513      2003.2107      5721.7864      2195.7559      7917.5423      168748.56      43.860141      43.860141      87.720282          16000 
     47000   2824.0365      97084.113      238.75649      98202.289      96694.784      96355.266      823.07297      840.25879      591.19688      5840.2007      2205.42        8045.6208      168861.62      43.869935      43.869935      87.739869          16000 
     48000   2790.0727      98256.592      245.20881      98741.476      97986.742      98041.558     -843.80053      962.99621      1489.664       5769.9626      2176.1695      7946.132       168639.05      43.850652      43.850652      87.701303          16000 
     49000   2794.3495      101224.03      251.67396      100287.09      101667.81      101717.18     -1325.372      -1626.9405      1820.1233      5778.8072      2247.3012      8026.1084      168551.03      43.843021      43.843021      87.686043          16000 
     50000   2801.6194      104837.43      258.12594      105125.37      104654.51      104732.41     -2734.609      -253.48886     -1962.8818      5793.8416      2285.6911      8079.5327      168343.49      43.825018      43.825018      87.650037          16000 
     51000   2768.3917      104079.29      264.57727      105403.83      103485.08      103348.95      687.63623      485.06677     -77.061534      5725.1256      2189.1536      7914.2792      168268.98      43.818552      43.818552      87.637103          16000 
     52000   2805.3672      101303.27      271.04374      100498.6       101402.3       102008.92      519.06397     -2976.9817     -1866.8332      5801.5922      2206.2422      8007.8343      168623.64      43.849316      43.849316      87.698631          16000 
     53000   2789.5379      99883.782      277.50052      100050.22      99144.33       100456.8      -1092.8026     -859.87022     -2110.9191      5768.8566      2180.8701      7949.7268      168523.49      43.840633      43.840633      87.681266          16000 
     54000   2823.1111      100382.06      283.95527      100048.19      100731.28      100366.71     -299.54874      2256.2456     -1616.7629      5838.2871      2239.2416      8077.5287      168638.11      43.85057       43.85057       87.701141          16000 
     55000   2809.1189      101803.7       290.41287      100831.75      101326.98      103252.38     -499.818       -1537.5329      955.23791      5809.3508      2201.7895      8011.1402      168452.21      43.834451      43.834451      87.668903          16000 
     56000   2805.298       98853.17       296.87555      99284.381      98482.582      98792.548     -434.64983      326.38027      1578.976       5801.449       2265.3652      8066.8142      168802.08      43.864777      43.864777      87.729555          16000 
     57000   2772.982       98779.882      303.33304      98831.319      99052.103      98456.225      916.98479      971.20075      439.57794      5734.6184      2215.7021      7950.3204      168686.95      43.854803      43.854803      87.709606          16000 
     58000   2817.3971      96814.164      309.78906      96618.381      96489.192      97334.92      -1283.2876      1075.1909     -1011.8352      5826.4704      2206.6398      8033.1101      168898.65      43.873141      43.873141      87.746283          16000 
     59000   2780.0421      95549.095      316.23796      96051.614      94500.76       96094.91       750.4436      -11.98588      -178.60568      5749.219       2241.1956      7990.4146      169034.53      43.884904      43.884904      87.769807          16000 
     60000   2800.7896      101454.81      322.69453      102234.2       100814.54      101315.69     -1440.8095      1006.1746      99.674442      5792.1255      2189.8684      7981.9938      168503.23      43.838876      43.838876      87.677752          16000 
     61000   2806.4893      102874.63      329.14969      103163.5       102614.01      102846.37     -301.46891      330.02213     -2986.9728      5803.9126      2178.994       7982.9065      168374.42      43.827702      43.827702      87.655404          16000 
     62000   2831.8687      101313.95      335.60235      102083.25      100427.84      101430.75      2387.0648      68.117492      935.2701       5856.3981      2222.5695      8078.9676      168537.37      43.841836      43.841836      87.683673          16000 
     63000   2802.0414      100366.26      342.05845      100047.36      100339.75      100711.66     -1682.2397     -153.1386       2117.5364      5794.7142      2209.9126      8004.6268      168531.36      43.841315      43.841315      87.68263           16000 
     64000   2791.2137      97948.963      348.50903      98051.031      97573.106      98222.752      1938.7582     -1183.0507     -888.08037      5772.3223      2185.5215      7957.8438      168800.38      43.86463       43.86463       87.72926           16000 
     65000   2778.5979      95471.65       354.97146      95867.81       94658.43       95888.71      -1178.8868      1141.1509     -2761.2202      5746.2324      2133.7195      7879.9519      168864.12      43.870151      43.870151      87.740301          16000 
     66000   2782.1199      97133.466      361.42442      97651.702      96544.239      97204.457     -346.1447       1729.2828     -2456.7092      5753.516       2270.2564      8023.7723      168876.06      43.871185      43.871185      87.742371          16000 
     67000   2795.3325      100806.51      367.87739      100358.75      100841.61      101219.15     -1687.9227     -1241.4274      1244.8862      5780.8401      2136.5235      7917.3636      168519.02      43.840246      43.840246      87.680491          16000 
     68000   2802.4509      100948.89      374.33381      100796.69      100858.66      101191.31      273.01564      1467.7488      1533.7588      5795.561       2233.2583      8028.8193      168561.17      43.8439        43.8439        87.6878            16000 
     69000   2799.3697      103099.15      380.78725      103245.33      102449.66      103602.47     -399.40387      1128.0886     -1163.7503      5789.1892      2126.2948      7915.484       168268.52      43.818512      43.818512      87.637024          16000 
     70000   2834.2741      104249.89      387.2426       103513.14      104966.26      104270.26     -882.59809      174.69069      488.3624       5861.3726      2171.7014      8033.0739      168305.12      43.821689      43.821689      87.643378          16000 
     71000   2802.4033      98346.122      393.70238      99034.508      97260.198      98743.659      855.2839       1963.9775      679.56333      5795.4626      2199.2328      7994.6955      168738.55      43.859274      43.859274      87.718548          16000 
     72000   2808.7915      96389.604      400.15694      95979.779      96180.046      97008.988      244.02225     -237.7444       1389.1478      5808.6737      2250.9361      8059.6098      168927.33      43.875624      43.875624      87.751248          16000 
     73000   2786.0996      99197.351      406.61532      99687.069      98935.524      98969.459     -2262.5455     -256.58897      55.208113      5761.7462      2202.1678      7963.914       168687.82      43.854878      43.854878      87.709757          16000 
     74000   2819.2898      98738.712      413.0756       99910.994      98854.174      97450.967     -338.41356     -1698.1099      674.307        5830.3845      2281.9104      8112.2948      168759.42      43.861082      43.861082      87.722164          16000 
     75000   2794.6947      101491.93      419.54185      102162.67      101417.05      100896.06      1930.5185      296.69652      630.12954      5779.5211      2272.7015      8052.2226      168562.94      43.844053      43.844053      87.688107          16000 
     76000   2797.061       106057.3       425.99771      106180.31      105871.4       106120.18     -2299.2912     -2358.2307     -1588.7448      5784.4146      2217.4558      8001.8704      168129.86      43.806473      43.806473      87.612946          16000 
     77000   2821.2164      103038.04      432.45475      102622.64      104033.02      102458.46      2015.1035     -2021.5891     -682.55878      5834.3688      2274.7511      8109.1199      168421.72      43.831806      43.831806      87.663612          16000 
     78000   2816.5558      100902.63      438.90501      100821.5       100748.48      101137.91     -362.4049      -1791.6556      296.09166      5824.7305      2151.9015      7976.632       168512.36      43.839668      43.839668      87.679336          16000 
     79000   2794.3401      98974.183      445.35729      98486.205      100517.81      97918.531     -2040.6325     -1097.8519     -382.53638      5778.7878      2149.3485      7928.1363      168614.4       43.848515      43.848515      87.69703           16000 
     80000   2800.5229      97409.728      451.82234      97728.025      98226.122      96275.037     -1261.808       851.62171     -265.2318       5791.5739      2214.0811      8005.655       168814.24      43.865831      43.865831      87.731663          16000 
     81000   2776.7284      100048.72      458.2648       100207.45      99017.279      100921.42     -1254.0642     -465.8841      -181.26552      5742.3661      2130.4785      7872.8446      168542.45      43.842277      43.842277      87.684555          16000 
     82000   2830.7746      105239.25      464.71424      104397.11      106964.94      104355.7      -608.32254     -175.03745      502.1129       5854.1355      2218.0161      8072.1516      168276.97      43.819246      43.819246      87.638491          16000 
     83000   2810.0639      103256.54      471.17234      103945.14      103431.06      102393.41     -807.94844     -541.65411     -978.13031      5811.3051      2275.3065      8086.6116      168437.64      43.833188      43.833188      87.666375          16000 
     84000   2808.4172      98794.708      477.62212      98789.568      98129.533      99465.024     -277.62229      2212.5292     -668.51947      5807.8997      2126.9275      7934.8272      168596.51      43.846964      43.846964      87.693928          16000 
     85000   2825.0851      98919.157      484.07158      99009.745      99652.159      98095.566      70.486712     -1046.8459      1056.2441      5842.3695      2134.8541      7977.2236      168671.72      43.853483      43.853483      87.706967          16000 
     86000   2803.5218      99361.567      490.52652      96904.948      100525.39      100654.37      1007.0359     -495.35837     -190.61091      5797.7758      2287.7281      8085.5039      168738.11      43.859236      43.859236      87.718471          16000 
     87000   2786.2882      102208.13      496.97611      101476.65      104103.47      101044.28     -961.98692      1159.2547     -1784.0645      5762.1361      2213.2814      7975.4175      168367.84      43.827132      43.827132      87.654263          16000 
     88000   2826.6688      101579.03      503.42811      101898.31      100800.91      102037.88      501.2088      -684.06908      125.41528      5845.6446      2231.3934      8077.038       168498.64      43.838478      43.838478      87.676956          16000 
     89000   2790.3036      100589.78      509.87331      100482.41      100673.95      100612.98      904.88836      529.46129      222.83087      5770.4401      2248.9105      8019.3507      168555.61      43.843418      43.843418      87.686836          16000 
     90000   2761.9245      99614.07       516.31825      99335.765      99802.684      99703.762      1440.3606     -791.13506     -941.9885       5711.7512      2218.1335      7929.8848      168545.77      43.842565      43.842565      87.68513           16000 
     91000   2790.3305      99985.236      522.76484      99377.297      99825.46       100752.95      1646.3289      1628.7913      532.11942      5770.4956      2212.1844      7982.6801      168683.65      43.854517      43.854517      87.709034          16000 
     92000   2808.8279      100139.86      529.22734      100675.97      100929.57      98814.03       1831.2435     -511.59601     -1754.4777      5808.749       2240.0247      8048.7737      168695.34      43.85553       43.85553       87.711059          16000 
     93000   2817.6569      98961.594      535.67453      99076.276      99033.367      98775.139      295.17103     -403.14221     -1482.8358      5827.0077      2139.7355      7966.7432      168633.61      43.85018       43.85018       87.70036           16000 
     94000   2812.3128      100282.39      542.12169      100145.08      101540.15      99161.941      1230.802      -1433.7344     -793.17666      5815.9559      2282.3979      8098.3538      168741.1       43.859495      43.859495      87.718989          16000 
     95000   2783.5517      101333.63      548.57088      101661.43      101769.32      100570.13      1507.0615     -2032.2098      665.13041      5756.477       2226.3691      7982.8461      168529.71      43.841172      43.841172      87.682344          16000 
     96000   2803.6468      98319.726      555.02734      98032.193      98769.641      98157.343      2236.2054     -794.52389      53.432204      5798.0343      2240.6375      8038.6719      168742.04      43.859577      43.859577      87.719153          16000 
     97000   2793.2418      97511.956      561.4758       96594.059      98315.138      97626.671      384.45122     -1166.2594     -1111.1805      5776.5165      2196.1748      7972.6913      168744.64      43.859802      43.859802      87.719604          16000 
     98000   2811.3484      102086.43      567.92491      101894.29      101459.4       102905.59      1330.5293      760.91947      1052.1736      5813.9614      2191.5997      8005.5611      168408.74      43.83068       43.83068       87.66136           16000 
     99000   2802.749       102936.28      574.38997      103659.47      103036.52      102112.86     -1543.496      -16.031205     -162.81287      5796.1776      2264.9113      8061.0889      168433.06      43.83279       43.83279       87.665579          16000 
    100000   2800.5653      100997.78      580.84668      100466.24      101417.65      101109.43      613.94189     -489.24807      690.34216      5791.6617      2213.9243      8005.586       168582.24      43.845727      43.845727      87.691454          16000 
    101000   2820.7723      98818.042      587.29678      97563.631      100871.04      98019.454     -844.66249     -1114.346       908.79343      5833.4503      2214.8616      8048.3119      168734.81      43.85895       43.85895       87.7179            16000 
    102000   2794.5143      96743.719      593.74586      96212.511      96827.542      97191.104      1607.4617     -406.86094     -345.23153      5779.1479      2193.1672      7972.3151      168876.86      43.871254      43.871254      87.742508          16000 
    103000   2790.6673      98515.693      600.19537      99271.452      98581.391      97694.236      2114.0588     -835.53444     -860.65664      5771.1922      2178.0075      7949.1997      168723.76      43.857992      43.857992      87.715984          16000 
    104000   2829.8909      101762.28      606.63705      102087.58      100904.53      102294.74     -64.342338     -381.33022      1616.812       5852.308       2201.4102      8053.7181      168542.58      43.842289      43.842289      87.684577          16000 
    105000   2783.2039      103057.21      613.08185      102682.68      103197.31      103291.65      941.02155     -1422.4905     -567.36626      5755.7577      2164.1548      7919.9126      168299.56      43.821206      43.821206      87.642413          16000 
    106000   2820.3824      102263.78      619.52545      103269.2       101610.82      101911.33      66.226329     -2508.059       398.00381      5832.6441      2248.7732      8081.4173      168566.79      43.844387      43.844387      87.688775          16000 
    107000   2775.3096      101922.16      625.97116      103031.86      101380.42      101354.18      1180.6891      976.35032      967.48892      5739.4321      2253.7275      7993.1595      168514.63      43.839864      43.839864      87.679729          16000 
    108000   2800.3335      99547.536      632.42304      98676.895      100044.77      99920.939      1319.0414      129.15969      483.47952      5791.1822      2200.0147      7991.1969      168689.07      43.854987      43.854987      87.709973          16000 
    109000   2807.7374      96515.56       638.8651       96891.818      96280.702      96374.16       1270.7518     -1015.9504     -181.27202      5806.4938      2247.8364      8054.3302      168918.75      43.874881      43.874881      87.749763          16000 
    110000   2787.7879      97454.042      645.3132       97958.061      97471.663      96932.401     -444.00822     -1298.7797      623.2923       5765.2376      2192.6509      7957.8885      168805.12      43.865041      43.865041      87.730082          16000 
    111000   2787.6513      99026.616      651.77133      97485.481      99607.52       99986.848     -1407.6582      623.19844      2434.2841      5764.9551      2194.7533      7959.7084      168628.33      43.849722      43.849722      87.699444          16000 
    112000   2817.5201      101781.12      658.225        101661.11      101350.76      102331.49     -196.84874      1221.0246      1010.5074      5826.7248      2264.4115      8091.1362      168484.72      43.837271      43.837271      87.674542          16000 
    113000   2808.3806      102287.75      664.67455      103193.99      102652.27      101016.98      1552.6869     -147.65904     -451.91395      5807.8239      2163.5061      7971.3301      168401.04      43.830013      43.830013      87.660025          16000 
    114000   2813.5027      100569.14      671.1273       101107.12      100773.11      99827.198     -640.79607     -530.96019     -829.13641      5818.4166      2231.0506      8049.4671      168591.52      43.846532      43.846532      87.693063          16000 
    115000   2807.5949      101149.62      677.58064      101826.82      100726.6       100895.45     -1265.4029      918.93956     -399.17474      5806.1991      2194.5214      8000.7205      168540.69      43.842124      43.842124      87.684249          16000 
    116000   2787.7524      98572.276      684.03673      98353.527      98861.527      98501.774     -426.05589     -1603.8617     -1207.2449      5765.1642      2203.4251      7968.5893      168647.57      43.85139       43.85139       87.70278           16000 
    117000   2801.2211      99549.89       690.49889      100252.95      99378.128      99018.589     -457.93457     -317.20591     -427.03442      5793.0178      2223.6763      8016.6941      168686.39      43.854754      43.854754      87.709508          16000 
    118000   2801.4734      98621.243      696.95944      99299.923      98716.686      97847.122      85.079543     -584.83522      2736.4245      5793.5395      2164.5557      7958.0952      168627.36      43.849639      43.849639      87.699277          16000 
    119000   2792.587       96754.081      703.41651      96610.898      95716.99       97934.355      608.26353      350.72715     -1511.5882      5775.1623      2217.597       7992.7592      168847.43      43.868706      43.868706      87.737412          16000 
    120000   2785.4094      97334.905      709.87124      99101.987      95921.377      96981.353     -957.97743      1256.6011     -325.49091      5760.3187      2155.2494      7915.5681      168786.28      43.863409      43.863409      87.726817          16000 
    121000   2804.8799      100372.14      716.32647      101409.84      100129.42      99577.145     -496.48508      284.54455     -1121.3395      5800.5843      2206.2793      8006.8636      168544.47      43.842453      43.842453      87.684905          16000 
    122000   2823.4776      102241.6       722.7817       103325.62      101583.47      101815.72      883.38933     -66.461991      1889.8864      5839.0451      2239.7271      8078.7722      168501.4       43.838717      43.838717      87.677435          16000 
    123000   2828.2751      101692.53      729.25251      102552.09      101814.19      100711.31     -2199.2271      973.30927      351.28342      5848.9664      2182.9323      8031.8987      168475.86      43.836502      43.836502      87.673004          16000 
    124000   2789.3763      98851.094      735.71642      98897.787      99027.503      98627.991      3139.7711      366.3166      -185.60516      5768.5223      2255.8656      8024.3879      168717.11      43.857417      43.857417      87.714833          16000 
    125000   2792.9247      99572.129      742.17252      101392.15      98968.258      98355.984     -1182.2603     -950.2807      -191.4206       5775.8607      2234.7036      8010.5643      168607.67      43.847932      43.847932      87.695863          16000 
    126000   2816.133       99338.799      748.62661      99527.638      100330.17      98158.593      812.01778     -218.54818     -927.78188      5823.8562      2197.8559      8021.7121      168705.81      43.856437      43.856437      87.712875          16000 
    127000   2798.4505      93628.594      755.09094      93636.14       92365.788      94883.856     -128.20276     -1265.5752      1212.0177      5787.2881      2189.1584      7976.4465      169025.62      43.884132      43.884132      87.768265          16000 
    128000   2760.9697      97450.12       761.54973      98170.496      96924.964      97254.901     -257.79994      1419.3283     -280.07089      5709.7766      2243.4935      7953.2701      168862.65      43.870024      43.870024      87.740048          16000 
    129000   2840.8205      99397.674      768.00935      99406.706      98608.761      100177.55      57.56642      -1349.7435     -1106.135       5874.9107      2184.014       8058.9247      168684.78      43.854615      43.854615      87.70923           16000 
    130000   2806.4207      100341.23      774.47496      100638.37      100224.64      100160.69      1630.5341      523.59734     -969.12726      5803.7709      2189.6572      7993.428       168546.12      43.842595      43.842595      87.68519           16000 
    131000   2811.2726      101454.37      780.9308       101905.17      101910.25      100547.68      524.98695      946.91949     -479.99969      5813.8047      2266.1524      8079.9572      168510.9       43.839541      43.839541      87.679083          16000 
    132000   2773.6753      102637.17      787.38868      102257.28      103132.43      102521.8       633.80752     -458.82832     -457.06032      5736.0521      2243.9013      7979.9534      168431.59      43.832662      43.832662      87.665324          16000 
    133000   2813.8827      100526.08      793.8417       100334.35      99874.319      101369.57     -426.18852      1257.3427      2513.1921      5819.2024      2131.6784      7950.8807      168564.29      43.844171      43.844171      87.688342          16000 
    134000   2831.5272      98093.905      800.2957       98405.898      97247.301      98628.515      1414.5805      779.28145     -2040.6403      5855.6918      2135.2631      7990.9549      168753.43      43.860563      43.860563      87.721126          16000 
    135000   2785.7924      97884.848      806.75111      98167.544      97613.635      97873.364     -102.92411      1828.7136      332.4185       5761.1108      2226.7958      7987.9066      168792.7       43.863965      43.863965      87.727931          16000 
    136000   2822.5525      97184.812      813.20579      97691.686      96241.741      97621.008      1332.0472      1172.1591      891.69796      5837.132       2241.8694      8079.0014      168856.67      43.869506      43.869506      87.739012          16000 
    137000   2801.7945      100585.04      819.65856      100731.78      100023.91      100999.41     -1035.3581      362.83589     -639.5192       5794.2037      2207.6673      8001.871       168552.04      43.843109      43.843109      87.686217          16000 
    138000   2810.1714      102482.4       826.11552      102796.67      102087.03      102563.49      2149.1124      2045.997       1387.7645      5811.5273      2160.5185      7972.0458      168388.36      43.828912      43.828912      87.657824          16000 
    139000   2816.7954      100140.82      832.57302      99898.833      100866.78      99656.863     -720.62488     -323.67908      490.63931      5825.2259      2253.4575      8078.6834      168653.78      43.851928      43.851928      87.703856          16000 
    140000   2794.8423      97234.827      839.04013      96009.508      97623.966      98071.007      1209.4187      1061.6768      1176.5773      5779.8263      2217.9292      7997.7554      168890.08      43.872399      43.872399      87.744797          16000 
    141000   2865.7086      95224.783      845.5058       96113.062      95239.417      94321.871      1473.0328     -643.38547      150.26048      5926.3802      2174.7326      8101.1128      169035.71      43.885005      43.885005      87.770011          16000 
    142000   2800.3265      99978.256      851.96455      99921.272      100495.14      99518.351     -309.90661      673.61782      777.68983      5791.1678      2190.4068      7981.5747      168621.15      43.8491        43.8491        87.6982            16000 
    143000   2807.1181      100813.5       858.42103      100200.09      101538.36      100702.06     -277.0486       351.68843      57.503819      5805.213       2178.1385      7983.3515      168495.21      43.838181      43.838181      87.676361          16000 
    144000   2813.511       98638.691      864.88402      97722.152      100039.6       98154.324     -16.485014      253.10289      192.60417      5818.4338      2268.9577      8087.3915      168776.01      43.862519      43.862519      87.725039          16000 
    145000   2804.9662      96880.456      871.33852      96689.496      97072.324      96879.549     -1485.7609      1239.0245     -1234.7876      5800.7628      2170.9788      7971.7416      168743.32      43.859687      43.859687      87.719375          16000 
    146000   2823.9671      96345.747      877.79862      97253.399      96575.122      95208.719     -252.48782      181.23841     -2096.5055      5840.0573      2134.8516      7974.9089      168787.38      43.863504      43.863504      87.727009          16000 
    147000   2798.7418      101253.59      884.26121      101165.78      101102.93      101492.05     -978.90619      1406.2949      829.28414      5787.8905      2214.7434      8002.6338      168396.38      43.829608      43.829608      87.659217          16000 
    148000   2803.8671      101399.5       890.7134       101402.98      101516.87      101278.65      0.67497443    -482.32036     -1724.8587      5798.4899      2294.4454      8092.9353      168571.4       43.844788      43.844788      87.689575          16000 
    149000   2778.2576      101159.79      897.17274      100791.72      101860.98      100826.66      1669.3328      778.33566      836.46787      5745.5286      2246.412       7991.9406      168476.49      43.836557      43.836557      87.673114          16000 
    150000   2813.8801      97674.097      903.62853      99040.903      95545.993      98435.395      909.17274     -576.02547     -2009.9312      5819.1972      2285.9536      8105.1508      168848.75      43.86882       43.86882       87.73764           16000 
    151000   2791.17        94599.143      910.08829      93676.932      95320.507      94799.989     -1170.5232      890.82465     -1167.558       5772.2319      2192.9207      7965.1526      169010.63      43.882835      43.882835      87.76567           16000 
    152000   2838.511       95820.609      916.55022      94713.907      96731.582      96016.338      1453.7355     -1474.5464     -668.54059      5870.1345      2229.6914      8099.8259      168987.23      43.880809      43.880809      87.761619          16000 
    153000   2788.707       98925.437      923.01068      97895.027      99408.121      99473.164      1079.4287      2384.3525      821.79511      5767.1382      2212.4646      7979.6028      168666.85      43.853061      43.853061      87.706122          16000 
    154000   2817.3355      99340.321      929.47611      99637.985      100288.9       98094.076      1379.7749     -966.87041     -63.744829      5826.3429      2193.0776      8019.4205      168708.75      43.856692      43.856692      87.713384          16000 
    155000   2797.4067      102396.82      935.94129      101309.81      102538.85      103341.82     -683.7562       27.447812      689.04209      5785.1295      2109.1742      7894.3037      168407.04      43.830533      43.830533      87.661066          16000 
    156000   2802.654       105782.55      942.40359      107240.92      105308.93      104797.81     -791.72354     -2369.7262     -519.82572      5795.9811      2243.7956      8039.7767      168207.12      43.813182      43.813182      87.626363          16000 
    157000   2797.5809      103919.11      948.85532      104397.61      103776.24      103583.48      1208.6478      469.35701      2008.7108      5785.4897      2295.2474      8080.7371      168341.45      43.824842      43.824842      87.649684          16000 
    158000   2773.153       99492.987      955.31217      99950.555      98637.978      99890.429      230.11861     -960.86156      65.873385      5734.9721      2229.2364      7964.2085      168617.53      43.848786      43.848786      87.697572          16000 
    159000   2818.6151      97784.469      961.76479      98300.675      98768.314      96284.418     -964.18514     -467.57811     -1529.826       5828.9891      2219.7175      8048.7067      168917.16      43.874744      43.874744      87.749487          16000 
    160000   2762.9343      98787.02       968.22072      99524.875      97784.761      99051.426      362.15485      1126.2859     -405.57053      5713.8395      2215.6754      7929.5148      168731.17      43.858635      43.858635      87.717269          16000 
    161000   2804.0901      100499.93      974.67906      99888.314      100900.58      100710.89      1864.3687      1019.957       411.53689      5798.9511      2171.3133      7970.2644      168564.93      43.844226      43.844226      87.688453          16000 
    162000   2828.3208      102152.4       981.13413      102119.98      101238.72      103098.5      -528.56822      71.738703     -1407.6022      5849.061       2262.3081      8111.3691      168576.99      43.845272      43.845272      87.690543          16000 
    163000   2807.4378      103354.72      987.58474      103610.02      102794.53      103659.6      -790.98714     -516.94874      302.34757      5805.8742      2199.8377      8005.7119      168349.72      43.825559      43.825559      87.651118          16000 
    164000   2795.6432      100148.78      994.03387      101775.05      100870.3       97800.982     -1027.4863      1123.3373     -824.61276      5781.4826      2298.0801      8079.5626      168702.38      43.85614       43.85614       87.71228           16000 
    165000   2793.2315      97718.404      1000.4869      98101.919      98744.716      96308.578      2211.1439     -1233.8667      216.24853      5776.495       2180.1171      7956.6121      168801.65      43.864741      43.864741      87.729481          16000 
    166000   2761.3629      97848.033      1006.9422      96643.514      98811.712      98088.873     -627.81378      1696.1375      792.89627      5710.5897      2193.1198      7903.7095      168764.42      43.861515      43.861515      87.72303           16000 
    167000   2801.4978      98918.162      1013.3891      99131.644      99568.065      98054.776      116.03199      1269.2691     -2150.7963      5793.5901      2245.6751      8039.2652      168738.57      43.859275      43.859275      87.718551          16000 
    168000   2792.8361      100602.5       1019.8343      100727.28      100996.1       100084.13      466.75974     -2307.9443     -973.8622       5775.6774      2253.6247      8029.3021      168555.16      43.843379      43.843379      87.686759          16000 
    169000   2782.3384      100203.81      1026.29        99870.064      100516.14      100225.23     -1857.5617     -1130.6627     -1801.7002      5753.9678      2149.7149      7903.6828      168510.28      43.839487      43.839487      87.678974          16000 
    170000   2825.6954      99602.998      1032.7425      99690.484      99780.95       99337.56       495.56451      706.17491      1605.2141      5843.6316      2184.5617      8028.1932      168691.04      43.855157      43.855157      87.710314          16000 
    171000   2765.087       99681.27       1039.1899      100031.01      99248.894      99763.908      1354.0026      208.44724     -1376.763       5718.2914      2165.0667      7883.3581      168551.43      43.843055      43.843055      87.686111          16000 
    172000   2797.3209      99011.783      1045.6342      99120.087      98957.536      98957.727     -220.47981      324.85593     -1646.2546      5784.9522      2208.0833      7993.0355      168711.04      43.85689       43.85689       87.71378           16000 
    173000   2752.6091      101481.49      1052.0823      100952.33      101693.73      101798.42     -2133.3284     -245.97369     -1960.2963      5692.4867      2223.7727      7916.2594      168478.71      43.83675       43.83675       87.6735            16000 
    174000   2797.9362      102938.46      1058.5411      102595.89      103155.07      103064.44      648.32927      335.986        1053.7401      5786.2245      2234.869       8021.0936      168443.24      43.833673      43.833673      87.667345          16000 
    175000   2838.6891      102452.19      1064.9867      102032.68      102069.57      103254.31      1542.9915      711.76677     -150.27937      5870.5029      2238.23        8108.7329      168494.75      43.838141      43.838141      87.676281          16000 
    176000   2818.9756      103154.94      1071.4288      103145.55      103294.36      103024.93      185.84221      942.46288      763.61353      5829.7347      2146.5409      7976.2756      168393.79      43.829384      43.829384      87.658767          16000 
    177000   2797.2933      96921.675      1077.8723      97634.01       96681.388      96449.628      977.65059     -292.85907     -513.16791      5784.895       2259.9402      8044.8351      168956.45      43.878145      43.878145      87.756291          16000 
    178000   2781.3302      97031.995      1084.3167      97671.56       96557.177      96867.247     -2401.8048      680.18276     -1531.9479      5751.8829      2171.0898      7922.9727      168835.24      43.867649      43.867649      87.735299          16000 
    179000   2804.8255      98362.599      1090.7587      99294.481      97532.745      98260.572      476.99207     -1677.4237      1706.8422      5800.4718      2214.743       8015.2148      168788.6       43.86361       43.86361       87.72722           16000 
    180000   2799.5839      99278.455      1097.2023      99768.506      98668.376      99398.483     -252.9315       1383.2596     -1165.9005      5789.6321      2180.1708      7969.8029      168652.15      43.851787      43.851787      87.703574          16000 
    181000   2793.8359      100309.41      1103.6522      100176.32      100524.56      100227.34     -2023.7209      1346.9399      1135.8636      5777.7449      2230.5307      8008.2756      168616.19      43.84867       43.84867       87.697341          16000 
    182000   2827.9004      100047.74      1110.1046      100227.59      99553.253      100362.37      527.96126      133.21742      1449.463       5848.1916      2131.3147      7979.5063      168645.01      43.851168      43.851168      87.702336          16000 
    183000   2799.3327      96813.559      1116.5451      97572.65       97088.645      95779.382      791.01175     -429.09749      76.28459       5789.1126      2248.0239      8037.1365      168926.93      43.87559       43.87559       87.75118           16000 
    184000   2792.3311      97851.754      1122.9933      98490.716      97152.306      97912.239     -1182.4519     -1418.0202      680.18871      5774.633       2195.0464      7969.6794      168713.96      43.857143      43.857143      87.714287          16000 
    185000   2843.7183      101149.86      1129.4423      101555.38      101157.66      100736.54      114.78746      1425.2322     -418.08683      5880.9035      2230.8346      8111.7382      168576.46      43.845226      43.845226      87.690452          16000 
    186000   2802.4611      103283.4       1135.8906      103386.05      102915.03      103549.11      663.44901     -1295.7636      2054.9366      5795.5822      2216.2359      8011.818       168314.26      43.822482      43.822482      87.644965          16000 
    187000   2814.2324      100663.95      1142.3394      100333.6       100820.17      100838.08      721.4104      -466.15071      10.99879       5819.9255      2237.5695      8057.4951      168558.57      43.843675      43.843675      87.68735           16000 
    188000   2795.6338      101149.47      1148.7842      101453.61      101753.32      100241.47     -518.57134     -1245.0409      398.2251       5781.4632      2192.8193      7974.2825      168447         43.834         43.834         87.667999          16000 
    189000   2815.003       98871.714      1155.2235      99006.688      99421.131      98187.324     -1109.4218      716.77564      702.01745      5821.5193      2269.3203      8090.8396      168747.3       43.860032      43.860032      87.720064          16000 
    190000   2783.0638      97289.504      1161.6671      99254.473      96756.439      95857.599      59.564218      132.60871      44.510347      5755.4678      2209.1989      7964.6667      168727.6       43.858325      43.858325      87.71665           16000 
    191000   2815.6666      98060.569      1168.1065      97963.506      98142.334      98075.867      1046.8557     -109.14573      395.12364      5822.8916      2230.2501      8053.1417      168852.38      43.869134      43.869134      87.738268          16000 
    192000   2781.5243      100447.82      1174.5502      99958.607      101249.66      100135.19      535.33661      2597.8248      323.9829       5752.2842      2222.0171      7974.3013      168564.06      43.844151      43.844151      87.688301          16000 
    193000   2827.2818      99783.705      1180.9953      99449.792      100582.01      99319.316     -1373.5813     -901.44416      905.88872      5846.9123      2245.656       8092.5683      168675.38      43.8538        43.8538        87.7076            16000 
    194000   2775.7009      101233.49      1187.438       101110.96      102202.69      100386.81      244.02117      1000.6776     -577.09765      5740.2412      2207.4017      7947.6429      168480.44      43.836899      43.836899      87.673799          16000 
    195000   2800.7162      100291.68      1193.8953      100160.84      99714.055      101000.16      1491.2173     -608.53832     -591.93152      5791.9737      2265.8515      8057.8252      168639.12      43.850658      43.850658      87.701315          16000 
    196000   2808.1332      97545.609      1200.3414      97716.434      97188.698      97731.694     -1123.4849      558.251       -1675.5701      5807.3123      2123.804       7931.1163      168666.56      43.853036      43.853036      87.706071          16000 
    197000   2816.1472      98660.247      1206.7907      98148.825      99767.195      98064.72      -740.9844       90.281575      1744.556       5823.8855      2191.0185      8014.904       168732.83      43.858778      43.858778      87.717556          16000 
    198000   2784.8026      104333.3       1213.2469      104845.71      104482.11      103672.06     -426.80729     -302.58292     -401.82371      5759.0638      2233.3465      7992.4102      168308.28      43.821963      43.821963      87.643926          16000 
    199000   2802.5498      103353.33      1219.6927      103209.39      103229.53      103621.06     -2595.4819     -1216.4428      1812.007       5795.7657      2231.9143      8027.68        168305.75      43.821743      43.821743      87.643487          16000 
    200000   2785.4396      100033.04      1226.1543      98684.437      100683.11      100731.58      1579.3772      228.79847     -301.51418      5760.3811      2266.3059      8026.687       168570.66      43.844723      43.844723      87.689446          16000 
    201000   2806.1875      100129.76      1232.6079      99450.876      100148.64      100789.77     -1047.557       1170.5072     -1338.0719      5803.2885      2198.5951      8001.8836      168618.56      43.848876      43.848876      87.697751          16000 
    202000   2793.6483      97355.49       1239.053       96889.753      97796.417      97380.299      328.91465      34.314921      419.36443      5777.357       2212.4817      7989.8388      168832.89      43.867446      43.867446      87.734892          16000 
    203000   2806.8851      97305.947      1245.5113      97253.556      97132.679      97531.605     -1334.8891      664.33945      867.21397      5804.7311      2126.6082      7931.3393      168759.94      43.861128      43.861128      87.722255          16000 
    204000   2811.512       101005.29      1251.9572      101891.04      99640.006      101484.84     -450.5816      -1393.8361     -90.867966      5814.2998      2227.7299      8042.0297      168539.12      43.841989      43.841989      87.683977          16000 
    205000   2794.1969      102198.16      1258.4042      103020.85      101364.69      102208.94     -699.85048     -7.6103097     -3487.5996      5778.4915      2271.0699      8049.5614      168423.42      43.831954      43.831954      87.663908          16000 
    206000   2781.4555      103634.66      1264.8563      103214.79      103702.42      103986.77      1047.0225     -1320.2814      1130.0956      5752.142       2282.662       8034.804       168335.78      43.82435       43.82435       87.6487            16000 
    207000   2815.2452      102034.79      1271.3011      102357.58      101929.97      101816.83      594.29113     -378.56405      2635.9564      5822.0201      2214.5217      8036.5418      168538.36      43.841923      43.841923      87.683846          16000 
    208000   2807.722       100473.42      1277.7628      101220.87      100355.25      99844.142      2322.2092     -605.10386     -334.39037      5806.4619      2232.3041      8038.766       168644.44      43.851119      43.851119      87.702237          16000 
    209000   2761.6416      100710.26      1284.2122      101028.06      100535.96      100566.76     -1978.3252      282.53533     -545.89614      5711.166       2243.8325      7954.9985      168555.63      43.84342       43.84342       87.68684           16000 
    210000   2802.7256      98265.284      1290.6752      98785.937      97787.129      98222.786      162.37562     -777.34557      1678.719       5796.1291      2254.3262      8050.4553      168767.4       43.861774      43.861774      87.723548          16000 
    211000   2761.3835      98505.67       1297.1362      98127.096      99505.162      97884.753      876.66815     -17.406785     -1067.3667      5710.6325      2216.3094      7926.9418      168731.35      43.85865       43.85865       87.7173            16000 
    212000   2823.5617      96781.029      1303.5999      96565.426      97523.436      96254.226      2119.0212     -1086.738       1263.3532      5839.219       2163.1139      8002.3329      168828.51      43.867067      43.867067      87.734135          16000 
    213000   2815.8557      100878.89      1310.0574      100035.38      101148.66      101452.61     -186.26943     -687.71355     -659.52384      5823.2827      2182.3277      8005.6105      168529.8       43.84118       43.84118       87.682361          16000 
    214000   2847.7271      101094.89      1316.5145      101728.22      100006.33      101550.13      732.62179     -707.94488     -1283.5335      5889.1937      2214.7888      8103.9825      168584.77      43.845946      43.845946      87.691893          16000 
    215000   2787.9342      99974.953      1322.9684      100995.51      99060.799      99868.548     -1354.3368     -62.645518     -102.22953      5765.5401      2229.4842      7995.0243      168636.76      43.850453      43.850453      87.700907          16000 
    216000   2801.7448      98432.65       1329.4229      97947.293      98495.699      98854.957     -991.39386      1059.0173     -1552.8605      5794.1009      2240.3229      8034.4238      168691.72      43.855216      43.855216      87.710432          16000 
    217000   2838.8451      99224.328      1335.873       99225.987      98380.764      100066.23      892.96967      536.18347      501.09733      5870.8255      2254.1571      8124.9826      168711.64      43.856943      43.856943      87.713885          16000 
    218000   2776.1166      96418.927      1342.3228      96544.528      95854.961      96857.293     -875.71931      160.42417      68.44458       5741.1008      2189.8863      7930.9872      168854.48      43.869316      43.869316      87.738632          16000 
    219000   2768.3294      98880.195      1348.774       100220.73      98872.906      97546.951      1935.6436     -524.80619     -2851.4358      5724.9967      2241.0516      7966.0482      168709.82      43.856784      43.856784      87.713569          16000 
    220000   2805.347       101805.56      1355.2182      101361.58      102597.77      101457.34      1859.8968     -2204.5282      462.33096      5801.5503      2185.2737      7986.8239      168400.43      43.82996       43.82996       87.659919          16000 
    221000   2814.6239      100283.18      1361.6668      100955.81      99930.002      99963.729     -1087.5627      1065.8539     -124.20668      5820.7352      2281.3208      8102.056       168581.33      43.845648      43.845648      87.691296          16000 
    222000   2788.8575      100355.36      1368.1162      101086.91      99894.296      100084.87      1199.6327      1082.4982      465.2878       5767.4495      2214.0186      7981.4681      168474.12      43.836352      43.836352      87.672703          16000 
    223000   2798.5436      99156.911      1374.5624      99482.891      99392.51       98595.33       1692.1229      434.35469      1369.2952      5787.4807      2229.6396      8017.1203      168774.47      43.862386      43.862386      87.724772          16000 
    224000   2809.6503      100092.52      1381.0149      99839.401      99943.346      100494.8       680.32178     -704.05604     -964.54818      5810.4498      2157.894       7968.3437      168668.28      43.853185      43.853185      87.70637           16000 
    225000   2787.1591      100562.51      1387.4651      101433.73      100960.89      99292.907     -1057.6681      802.89088     -1750.7756      5763.9372      2297.3261      8061.2633      168632.13      43.850051      43.850051      87.700103          16000 
    226000   2813.0999      101916.8       1393.9116      100709.23      101387.56      103653.62     -1701.4615      232.87273     -303.62955      5817.5837      2176.2764      7993.86        168436.51      43.833089      43.833089      87.666178          16000 
    227000   2856.9128      102510.14      1400.3637      102915.42      101240.09      103374.91     -645.81042     -662.63432     -1667.4833      5908.1901      2218.0908      8126.2809      168514         43.83981       43.83981       87.67962           16000 
    228000   2803.638       97656.581      1406.8269      97128.669      97976.813      97864.262      317.33451     -1245.742      -1843.0976      5798.0161      2215.5219      8013.538       168829.44      43.867148      43.867148      87.734295          16000 
    229000   2779.6301      98038.253      1413.2903      98715.691      98255.46       97143.607     -1061.7634     -831.74351      870.60873      5748.3669      2175.8246      7924.1916      168735.79      43.859035      43.859035      87.718069          16000 
    230000   2807.5382      97498.973      1419.7584      97365.558      97611.252      97520.109     -373.91562     -392.78696     -19.524239      5806.0818      2227.0099      8033.0917      168826.66      43.866907      43.866907      87.733814          16000 
    231000   2818.6323      101052.14      1426.216       100150.96      101768.34      101237.13     -1334.5518      496.52094     -416.0749       5829.0247      2166.488       7995.5127      168550.61      43.842985      43.842985      87.685969          16000 
    232000   2804.9178      101551.88      1432.6764      102221.41      101142.44      101291.8       550.85606     -797.97561      1052.0526      5800.6628      2173.1991      7973.8619      168504.45      43.838982      43.838982      87.677963          16000 
    233000   2819.5071      99415.791      1439.1426      98715.595      99987.407      99544.37      -2312.695       436.60944     -452.67991      5830.8339      2299.9844      8130.8183      168810.98      43.865548      43.865548      87.731096          16000 
    234000   2809.2443      99042.777      1445.5973      99318.057      97894.774      99915.5        868.82562     -405.16647      1662.0158      5809.6102      2168.1275      7977.7376      168742.55      43.859621      43.859621      87.719241          16000 
    235000   2775.077       99180.201      1452.0524      98860.858      99117.035      99562.711     -1048.8683      1586.3411     -340.04369      5738.951       2246.5718      7985.5229      168642         43.850907      43.850907      87.701814          16000 
    236000   2826.098       103597.3       1458.5127      102926.45      104267.87      103597.58      1011.3919     -560.04917     -1382.0284      5844.464       2211.6405      8056.1045      168356.82      43.826176      43.826176      87.652351          16000 
    237000   2791.6106      103479.11      1464.9673      103546.8       103036.95      103853.57     -660.55377     -294.83266      432.76891      5773.143       2203.0103      7976.1533      168354.68      43.825989      43.825989      87.651979          16000 
    238000   2800.7754      102219.66      1471.4256      102833.15      101974.65      101851.17     -1697.1689     -967.94436      1610.3107      5792.0961      2223.6145      8015.7106      168526.23      43.84087       43.84087       87.681741          16000 
    239000   2768.2351      100518.54      1477.8811      100541.37      99899.007      101115.24     -297.47484      66.30148      -140.8953       5724.8018      2188.9188      7913.7206      168524.04      43.840681      43.840681      87.681362          16000 
    240000   2790.8701      99596.216      1484.3365      98944.517      99908.38       99935.751      1950.4958      56.491817      1202.279       5771.6116      2220.492       7992.1036      168691.15      43.855167      43.855167      87.710334          16000 
    241000   2807.4443      99767.506      1490.7958      99986.358      99663.238      99652.922      781.8892      -58.075417      142.16931      5805.8876      2245.5482      8051.4357      168711.88      43.856963      43.856963      87.713926          16000 
    242000   2785.6098      99142.9        1497.2477      99165.623      98054.162      100208.91      3418.8174      401.47724     -1921.6525      5760.7332      2222.2918      7983.025       168719.63      43.857635      43.857635      87.71527           16000 
    243000   2796.144       95169.515      1503.6959      94985.784      95742.233      94780.528     -1843.41        848.9429       1372.3691      5782.5181      2182.4596      7964.9777      168967.62      43.879112      43.879112      87.758224          16000 
    244000   2789.047       96737.806      1510.149       97159.987      96006.048      97047.381     -2925.7895      380.22167     -229.34632      5767.8415      2157.0385      7924.88        168794.17      43.864092      43.864092      87.728185          16000 
    245000   2793.9295      100687.18      1516.5977      100710.71      100274.83      101076.01      675.07074      2333.5423      59.257589      5777.9386      2204.6759      7982.6145      168483.15      43.837134      43.837134      87.674268          16000 
    246000   2774.9103      101761.75      1523.0459      101175.2       100888.88      103221.16     -431.72051     -1949.2093     -1587.678       5738.6062      2290.8854      8029.4916      168551.79      43.843087      43.843087      87.686175          16000 
    247000   2808.3038      101492.53      1529.4945      101459.52      101745.17      101272.9       1494.8548      596.76742      2217.7734      5807.6651      2230.9229      8038.5881      168509.7       43.839437      43.839437      87.678875          16000 
    248000   2753.0508      103042.99      1535.9457      103790.18      102191.92      103146.87     -915.19013      1251.4298     -876.74049      5693.4001      2229.0504      7922.4505      168339.7       43.82469       43.82469       87.64938           16000 
    249000   2794.5478      101566.27      1542.4002      101973.33      101394.78      101330.7      -489.79744      691.22823     -992.38885      5779.2172      2210.4446      7989.6618      168482.01      43.837036      43.837036      87.674071          16000 
    250000   2795.9213      98927.44       1548.8486      98657.111      98486.279      99638.931     -1632.7001     -798.95033      1298.2749      5782.0578      2215.3342      7997.392       168733.62      43.858847      43.858847      87.717694          16000 
    251000   2806.1847      97690.95       1555.2935      97845.817      97744.012      97483.02       845.60272      966.71507     -534.7397       5803.2827      2174.483       7977.7657      168814.2       43.865827      43.865827      87.731655          16000 
    252000   2810.6899      99355.655      1561.7313      99433.244      99607.277      99026.444     -885.74222     -746.34079      1527.7792      5812.5996      2273.2697      8085.8693      168730.45      43.858573      43.858573      87.717145          16000 
    253000   2792.2522      104269.28      1568.1999      103706.59      106168.11      102933.15      246.5516      -451.10661      407.69242      5774.4699      2202.2363      7976.7062      168248.1       43.81674       43.81674       87.633479          16000 
    254000   2823.199       103973.52      1574.654       103088.12      104902.64      103929.79      211.0935       397.96246      2026.9328      5838.4688      2293.4005      8131.8693      168346.78      43.825304      43.825304      87.650608          16000 
    255000   2832.45        99512.71       1581.0975      99892.102      99890.479      98755.548     -521.29448      2123.4431     -555.99601      5857.6003      2173.5901      8031.1905      168657.69      43.852267      43.852267      87.704534          16000 
    256000   2791.1304      98954.473      1587.5447      98816.42       98800.101      99246.899     -5.8825984      2132.5221     -139.60982      5772.1499      2181.7673      7953.9171      168599.86      43.847254      43.847254      87.694508          16000 
    257000   2792.4364      100126.72      1593.9925      99550.121      99683.377      101146.66     -41.054828     -1775.5581      494.35415      5774.8508      2220.412       7995.2628      168604.86      43.847688      43.847688      87.695376          16000 
    258000   2793.0459      99564.265      1600.4398      100420.93      98671.536      99600.326      748.65949      218.73179      1339.9361      5776.1112      2221.3182      7997.4294      168682.48      43.854415      43.854415      87.708831          16000 
    259000   2776.1652      101072.14      1606.89        101173.72      102301.25      99741.444      821.47994     -650.44057     -1305.7679      5741.2014      2214.4399      7955.6413      168488.04      43.837559      43.837559      87.675118          16000 
    260000   2826.6861      101920.34      1613.3424      101378.88      101993.35      102388.8      -25.497056      2033.347       1900.0893      5845.6804      2270.6053      8116.2856      168472.1       43.836177      43.836177      87.672353          16000 
    261000   2781.4933      102145.19      1619.7902      102303.14      102478.51      101653.93      1315.4799      2125.9442      1657.2151      5752.2201      2201.9918      7954.2119      168447.77      43.834066      43.834066      87.668131          16000 
    262000   2774.1083      101163.64      1626.2399      101143.5       101656.53      100690.89     -533.74455      62.198032      641.19584      5736.9477      2220.6521      7957.5998      168499.31      43.838536      43.838536      87.677072          16000 
    263000   2808.6896      101121.01      1632.6834      102624.77      99962.43       100775.82     -251.56493     -1139.7364      431.13038      5808.463       2220.3338      8028.7968      168512.32      43.839664      43.839664      87.679329          16000 
    264000   2785.2691      100734.69      1639.1339      99527.297      100551.39      102125.37      321.35446      561.922       -521.67785      5760.0285      2135.8139      7895.8424      168543.48      43.842367      43.842367      87.684733          16000 
    265000   2796.4624      94618.891      1645.5791      93303.883      95199.686      95353.103      447.31451     -530.04244     -1478.2037      5783.1766      2196.1712      7979.3478      169076.09      43.888499      43.888499      87.776999          16000 
    266000   2764.8812      96315.697      1652.0203      96614.115      95875.296      96457.678     -843.679        2326.8493      156.61337      5717.8658      2196.32        7914.1858      168885.14      43.871971      43.871971      87.743943          16000 
    267000   2805.3857      98913.33       1658.4654      98647.451      99938.281      98154.259     -469.5411      -1950.7694     -258.02764      5801.6304      2227.1095      8028.7399      168743.49      43.859702      43.859702      87.719404          16000 
    268000   2787.8268      101816.54      1664.8987      102353.58      101331.56      101764.48      337.98278     -85.031913     -548.01628      5765.3179      2125.7652      7891.0831      168439.85      43.833379      43.833379      87.666758          16000 
    269000   2818.632       102241.63      1671.3452      102590.45      101833.71      102300.74      1865.7968     -279.01799      798.51022      5829.0242      2209.8769      8038.9011      168513.45      43.839762      43.839762      87.679525          16000 
    270000   2807.3698      102581.82      1677.8028      102543.28      102388.15      102814.02      139.97928     -1083.7187      297.69232      5805.7336      2199.0552      8004.7888      168397.49      43.829704      43.829704      87.659408          16000 
    271000   2811.9522      99100.568      1684.25        98836.765      98944.371      99520.568      317.70333     -181.58682      654.27753      5815.2101      2200.2463      8015.4564      168664.37      43.852846      43.852846      87.705691          16000 
    272000   2806.3         97862.719      1690.7011      97684.739      97916.535      97986.883     -2002.5724     -1184.9396      993.79674      5803.5212      2166.7588      7970.28        168763.61      43.861445      43.861445      87.72289           16000 
    273000   2809.258       96835.39       1697.1527      95577.338      98687.139      96241.692     -752.7507       1221.2924      773.09091      5809.6383      2239.0295      8048.6678      168871.71      43.870809      43.870809      87.741617          16000 
    274000   2781.7007      98100.177      1703.6085      97896.642      98513.522      97890.366      2350.6522      380.40677     -1289.2632      5752.6491      2235.9158      7988.5649      168781.45      43.86299       43.86299       87.72598           16000 
    275000   2784.2569      98289.049      1710.0578      98105.116      98158.087      98603.944      260.36576     -210.1756      -2218.375       5757.9354      2319.4316      8077.367       168836.85      43.867789      43.867789      87.735578          16000 
    276000   2805.7915      101097.81      1716.5043      102651.16      100035.08      100607.2       615.16693     -438.47841     -763.24522      5802.4696      2190.8126      7993.2822      168543.43      43.842362      43.842362      87.684725          16000 
    277000   2815.4717      99089.92       1722.9499      98716.197      100107.38      98446.18       16.843407     -943.35723     -41.191623      5822.4886      2200.4054      8022.894       168652.24      43.851795      43.851795      87.70359           16000 
    278000   2779.0316      99518.42       1729.3943      100275.39      100583.67      97696.195      862.44431     -263.61638      222.01854      5747.1291      2213.4792      7960.6084      168618.97      43.848911      43.848911      87.697822          16000 
    279000   2791.8385      99780.562      1735.8496      99511.775      99684.637      100145.27      830.77239     -561.53886     -878.06743      5773.6143      2280.6141      8054.2285      168625.09      43.849442      43.849442      87.698883          16000 
    280000   2802.1129      104056.14      1742.3034      104502.52      103333.54      104332.37      896.75702     -1201.4973      1708.8322      5794.8622      2218.3356      8013.1978      168291.02      43.820465      43.820465      87.64093           16000 
    281000   2788.8985      102107.23      1748.7612      101591.75      102342.09      102387.85     -40.715566      1144.6992      1278.079       5767.5343      2254.4102      8021.9445      168460.7       43.835187      43.835187      87.670374          16000 
    282000   2814.5715      101177.34      1755.2214      101553.7       101542.79      100435.52     -1681.7432     -1014.2838      1080.6488      5820.6269      2112.9326      7933.5594      168492.31      43.837929      43.837929      87.675858          16000 
    283000   2817.2891      98858.102      1761.6771      98686.085      99354.506      98533.716     -144.62502     -480.27494     -260.69353      5826.247       2204.3653      8030.6122      168708.22      43.856646      43.856646      87.713292          16000 
    284000   2791.3287      98882.58       1768.1306      99628.596      98121.424      98897.72      -1104.5167     -2021.9949      959.83211      5772.56        2297.0572      8069.6172      168754.18      43.860628      43.860628      87.721257          16000 
    285000   2773.7667      100633.05      1774.5851      101201.48      100332.58      100365.08     -709.13521      895.67785     -433.08137      5736.2411      2238.1466      7974.3877      168588.23      43.846247      43.846247      87.692493          16000 
[...]
   3930000   3180.2491      101262.17      6699.1379      112360.81      109261.6       82164.105     -1021.3876     -1070.5237     -1298.666       6576.8603      3791.0346      10367.895      170253.79      43.785755      43.785755      88.803709          16000 
   3931000   3150.5651      101982.74      6706.3572      111632.7       111356.79      82958.724     -896.93913      574.33015     -289.48731      6515.4727      3856.9867      10372.459      170180.04      43.779432      43.779432      88.790883          16000 
   3932000   3183.0353      100484.37      6713.5934      109900.26      109714.47      81838.394      1164.0243      375.70324     -1916.5206      6582.6222      3784.3822      10367.004      170258.07      43.786122      43.786122      88.804453          16000 
   3933000   3194.2823      100708.97      6720.8188      110580.32      109168         82378.602     -1910.1567     -410.07602      1732.7036      6605.8815      3763.9104      10369.792      170198.23      43.780991      43.780991      88.794047          16000 
   3934000   3195.6206      104479.62      6728.0413      113961.45      113650.36      85827.05      -654.09733     -2302.2354     -337.40688      6608.6491      3777.8885      10386.538      169933.47      43.758278      43.758278      88.747981          16000 
   3935000   3186.4566      100020.71      6735.2659      109943.55      107757.51      82361.085      453.66102     -818.17043      188.81932      6589.6975      3775.0575      10364.755      170277.38      43.787777      43.787777      88.807809          16000 
   3936000   3198.3924      99960.078      6742.4888      108981.6       109859.85      81038.778     -716.39784     -1722.1945      29.803327      6614.3812      3745.8033      10360.184      170347.63      43.793798      43.793798      88.82002           16000 
   3937000   3168.4715      100495.55      6749.72        109550.42      110593.92      81342.306     -2344.0311     -1512.8378     -359.82112      6552.5038      3811.855       10364.359      170274.63      43.787541      43.787541      88.807331          16000 
   3938000   3168.2908      99789.464      6756.9458      108810.62      109450.93      81106.837      656.27552      761.82397     -1979.7188      6552.13        3806.5167      10358.647      170364.54      43.795247      43.795247      88.82296           16000 
   3939000   3182.3151      98396.031      6764.1691      107917.72      107054.53      80215.839      988.98591     -3093.5899     -326.96229      6581.1329      3781.042       10362.175      170302.48      43.789929      43.789929      88.812174          16000 
   3940000   3172.9944      100088.52      6771.3944      109640         108283.1       82342.44       899.35266     -80.079378     -1400.5743      6561.8572      3797.9256      10359.783      170329.79      43.792269      43.792269      88.81692           16000 
   3941000   3211.6174      101628.16      6778.6185      109299.28      112325.08      83260.135      28.61326       1032.9322      456.30988      6641.7309      3729.1324      10370.863      170150.94      43.776937      43.776937      88.785823          16000 
   3942000   3199.3638      103408.3       6785.8504      112350.16      111462.72      86412.037      1011.4654      756.10449     -597.84565      6616.3902      3761.3988      10377.789      170034.66      43.766962      43.766962      88.765593          16000 
   3943000   3201.2693      103261.73      6793.0748      113588.07      112320.14      83876.972     -1168.4292     -667.92399     -938.84478      6620.3308      3758.1045      10378.435      170014.43      43.765226      43.765226      88.762072          16000 
   3944000   3170.2991      101336.95      6800.296       111580.51      111488.2       80942.125      1158.1786     -125.08464     -876.45564      6556.2833      3814.2354      10370.519      170135.96      43.775652      43.775652      88.783218          16000 
   3945000   3153.8387      101725         6807.5204      112324.62      109867.87      82982.502      554.03526      1765.6006     -774.56708      6522.2428      3840.999       10363.242      170249.94      43.785425      43.785425      88.803039          16000 
   3946000   3185.8033      99584.809      6814.749       109114.3       107636.03      82004.099      1182.1526      1722.8957      835.67815      6588.3465      3768.137       10356.483      170353.24      43.794279      43.794279      88.820997          16000 
   3947000   3164.169       101658.29      6821.9805      111159.15      110998.61      82817.109      1281.4966     -1945.0079      1053.4507      6543.6061      3816.2878      10359.894      170286.92      43.788595      43.788595      88.809468          16000 
   3948000   3192.994       103608.03      6829.2074      113737.21      113355.97      83730.902      1217.1407      881.97472     -849.51756      6603.2171      3772.0728      10375.29       170037.24      43.767183      43.767183      88.766041          16000 
   3949000   3175.953       104155.02      6836.4328      113357.29      114238.96      84868.799     -499.50327      170.77948     -2576.2554      6567.9759      3803.0003      10370.976      170104.21      43.772928      43.772928      88.777693          16000 
   3950000   3180.3273      100885.95      6843.6624      110443.47      110074.94      82139.462      430.60805     -1058.7689     -1835.5508      6577.022       3783.973       10360.995      170261.56      43.786421      43.786421      88.805059          16000 
   3951000   3174.2092      99710.668      6850.886       107685.12      109097.69      82349.192      1429.9666     -2106.3302     -223.10946      6564.3696      3792.3994      10356.769      170323.86      43.791761      43.791761      88.81589           16000 
   3952000   3162.5333      99375.91       6858.1124      108394.92      109113.43      80619.379      541.49783     -1.7223285     -980.85982      6540.2234      3816.1981      10356.422      170326.46      43.791984      43.791984      88.816342          16000 
   3953000   3183.1354      100200.47      6865.338       110737.6       110060.3       79803.503      388.43196     -461.60242     -149.45603      6582.8292      3772.8037      10355.633      170335.15      43.792728      43.792728      88.817851          16000 
   3954000   3167.3373      98806.562      6872.5616      106549.92      108863.64      81006.133     -386.85637     -691.63622     -667.11486      6550.1583      3796.1565      10346.315      170482.24      43.805331      43.805331      88.843411          16000 
   3955000   3195.5551      99069.209      6879.7815      108131.19      108064.71      81011.727      535.70793     -32.177025      543.78561      6608.5136      3743.7914      10352.305      170379.62      43.796539      43.796539      88.82558           16000 
   3956000   3176.9656      102445.82      6887.0055      111150.68      112757.89      83428.895      1206.8109      739.43653     -664.34405      6570.0699      3796.2412      10366.311      170156.37      43.777402      43.777402      88.786767          16000 
   3957000   3171.2447      105487.56      6894.232       114968.89      113590.45      87903.358     -1785.9299      902.64676      1740.3825      6558.239       3823.7541      10381.993      169917.81      43.756934      43.756934      88.745255          16000 
   3958000   3197.1785      102631.59      6901.4525      112604.99      111605.01      83684.755     -878.85294     -2695.9756     -1349.2235      6611.8708      3761.6166      10373.487      170045.81      43.767918      43.767918      88.767532          16000 
   3959000   3188.3216      103344.87      6908.6779      111196.47      112887.14      85950.995      752.80127     -2437.1002     -263.78794      6593.5545      3780.111       10373.666      170030.93      43.766642      43.766642      88.764943          16000 
   3960000   3176.9464      100079.31      6915.9098      110523.44      108740.46      80974.023      967.95716      226.84588      859.23676      6570.0301      3786.1981      10356.228      170303.54      43.79002       43.79002       88.812358          16000 
   3961000   3180.3431      100216.1       6923.135       109760.23      110073.91      80814.154     -1729.7398      60.944958     -845.9552       6577.0546      3777.028       10354.083      170321.4       43.791551      43.791551      88.815463          16000 
   3962000   3180.2112      98893.583      6930.3573      107166.69      109156.28      80357.782      553.49372     -679.95288      885.7062       6576.7819      3773.5374      10350.319      170343.4       43.793436      43.793436      88.819286          16000 
   3963000   3176.4598      99441.501      6937.5787      108497.86      108600.35      81226.293     -648.50278     -3662.0452      625.65224      6569.0239      3781.3263      10350.35       170339.01      43.793059      43.793059      88.818523          16000 
   3964000   3183.6699      98595.973      6944.794       107175.47      109048.74      79563.71      -106.25912     -2880.1727     -1709.9707      6583.9347      3767.3312      10351.266      170322.03      43.791605      43.791605      88.815572          16000 
   3965000   3198.5054      99090.152      6952.0143      108937.24      107626.03      80707.188      1376.7826     -924.30604      1409.6722      6614.615       3739.4634      10354.078      170267.21      43.786905      43.786905      88.806041          16000 
   3966000   3191.4119      102210.83      6959.2337      111125.99      112446.56      83059.926      273.59273      2600.6936     -784.29758      6599.9454      3760.1041      10360.05       170172.32      43.77877       43.77877       88.789542          16000 
   3967000   3185.9283      103434.64      6966.4545      113001.95      113271.54      84030.416     -1182.5514     -1226.5145     -428.93646      6588.605       3782.361       10370.966      169992.77      43.763367      43.763367      88.758303          16000 
   3968000   3178.8261      102783.6       6973.6763      111972.48      111015.85      85362.471      444.61317     -734.97022      20.137873      6573.9175      3795.8289      10369.746      170007.48      43.76463       43.76463       88.760863          16000 
   3969000   3192.1724      101655.44      6980.898       111803.48      110529.68      82633.15      -217.35698      751.60819      481.00589      6601.5181      3760.6102      10362.128      170109.95      43.773421      43.773421      88.778692          16000 
   3970000   3153.4582      100884.93      6988.1257      110532.37      110485.47      81636.952      187.50208      1775.6611     -1721.0655      6521.4557      3833.1963      10354.652      170222.41      43.783065      43.783065      88.798252          16000 
   3971000   3175.8843      98145.79       6995.3598      106732.78      108796.53      78908.062     -777.76962     -1396.9509      790.43177      6567.8338      3777.1801      10345.014      170367.52      43.795503      43.795503      88.823478          16000 
   3972000   3154.0223      97014.133      7002.5665      105636.62      106588.42      78817.367     -1143.6566      1208.4458      76.864896      6522.6225      3815.8799      10338.502      170467.43      43.804062      43.804062      88.840837          16000 
   3973000   3169.9161      97935.369      7009.6565      105815.47      108595.14      79395.494     -1008.2773     -238.48633     -933.89784      6555.4913      3784.383       10339.874      170438.79      43.801609      43.801609      88.835861          16000 
   3974000   3196.4343      97171.327      7016.7501      106570.7       106496.51      78446.769     -1171.8767      1033.5171     -2295.1868      6610.3319      3724.7654      10335.097      170504.87      43.807269      43.807269      88.847341          16000 
   3975000   3188.5555      99828.463      7023.841       109563.8       109230.5       80691.089     -879.96665     -363.46459      402.28252      6594.0382      3750.2409      10344.279      170355.74      43.794493      43.794493      88.821431          16000 
   3976000   3172.2454      102677.73      7030.9283      112639.1       111032.79      84361.288     -685.18086     -101.8303       385.15389      6560.3083      3801.0811      10361.389      170076.96      43.770591      43.770591      88.772953          16000 
   3977000   3180.6667      100870.36      7038.018       110650.11      110024.81      81936.159      350.10164     -1212.4389      1178.3847      6577.724       3773.5238      10351.248      170239.71      43.784548      43.784548      88.801261          16000 
   3978000   3198.2159      99724.812      7045.1031      108711.49      109628.23      80834.715     -1335.9883      517.92859     -2624.6457      6614.0161      3729.518       10343.534      170351.8       43.794155      43.794155      88.820745          16000 
   3979000   3178.3794      98681.16       7052.1936      108174.09      107365.02      80504.369      2463.5052     -2211.6219     -1066.127       6572.9936      3771.9381      10344.932      170323.77      43.791753      43.791753      88.815873          16000 
   3980000   3174.3765      99609.029      7059.28        108285.65      109775.5       80765.936      1333.6467     -76.341637     -193.11212      6564.7155      3782.2738      10346.989      170288.67      43.788745      43.788745      88.809773          16000 
   3981000   3150.5901      102829.23      7066.3721      112132.29      111889.83      84465.568     -1226.4277      126.49895     -948.42526      6515.5244      3844.3264      10359.851      170083.19      43.771125      43.771125      88.774037          16000 
   3982000   3183.8423      102725.06      7073.469       111934.18      113705.44      82535.562     -732.8884      -583.29552      2065.9266      6584.2912      3781.4471      10365.738      169984.24      43.762635      43.762635      88.756817          16000 
   3983000   3176.0531      101992.2       7080.5565      111563.78      111286.09      83126.733      534.65564     -984.26983     -99.810666      6568.1829      3788.9541      10357.137      170119.02      43.774199      43.774199      88.78027           16000 
   3984000   3178.0027      100130.38      7087.6424      109918.31      110470.87      80001.951     -434.95463      447.70777     -1404.0885      6572.2147      3772.3696      10344.584      170305.21      43.790163      43.790163      88.812648          16000 
   3985000   3198.7317      97787.361      7094.7307      107232.87      108362.05      77767.159      563.99568      354.75866      201.0619       6615.083       3722.3628      10337.446      170418.09      43.799836      43.799836      88.832266          16000 
   3986000   3167.2986      96779.389      7101.8186      104364         106738.94      79235.229      216.54883      1111.1494     -1054.0202      6550.0783      3781.4303      10331.509      170503.54      43.807155      43.807155      88.84711           16000 
   3987000   3159.0913      97835.067      7108.9075      106277.76      108086.83      79140.612      2113.0738      433.80842      2677.7946      6533.1053      3801.3923      10334.498      170448.53      43.802443      43.802443      88.837554          16000 
   3988000   3181.5459      103417.08      7115.997       113782.55      112704.64      83764.061      1198.1598      139.84169     -701.35078      6579.5422      3780.1032      10359.645      170047.56      43.768069      43.768069      88.767837          16000 
   3989000   3169.3922      104299.81      7123.0763      114026.48      113988.82      84884.128     -197.90344      347.89876     -757.1791       6554.4078      3808.2703      10362.678      170000.61      43.76404       43.76404       88.759667          16000 
   3990000   3168.2855      104903.58      7130.1613      113478.2       115868.52      85364.009     -912.10923      524.5251       335.33431      6552.1191      3813.4768      10365.596      169945.5       43.759311      43.759311      88.750076          16000 
   3991000   3184.9665      101872.08      7137.2496      110689.85      112594.9       82331.474     -1467.0161      701.79199     -76.995028      6586.6159      3767.6794      10354.295      170107.91      43.773246      43.773246      88.778338          16000 
   3992000   3173.2153      101431.34      7144.336       110307.2       111907.66      82079.154      1068.5909      528.58171     -1603.3926      6562.3141      3784.1548      10346.469      170232.4       43.783922      43.783922      88.79999           16000 
   3993000   3159.5192      100664.79      7151.4249      110961.08      108771.01      82262.282     -1139.7526      1850.5503      1338.1051      6533.9902      3808.3864      10342.377      170284.48      43.788386      43.788386      88.809045          16000 
   3994000   3178.0437      99220.257      7158.5102      109474.42      107014.35      81172.002      1583.1452      697.18553      227.11174      6572.2994      3761.0774      10333.377      170412.69      43.799373      43.799373      88.831327          16000 
   3995000   3171.6639      99444.522      7165.5939      108732.83      108178.33      81422.408      286.64511      1479.8055      1177.2392      6559.1059      3776.1463      10335.252      170375.54      43.79619       43.79619       88.824872          16000 
   3996000   3167.9592      100245.57      7172.6794      110333.5       108092.29      82310.918     -1617.3223      1704.2477      1105.7187      6551.4443      3787.6161      10339.06       170295.34      43.789316      43.789316      88.810931          16000 
   3997000   3162.8806      101005.95      7179.7615      110909.98      111815.58      80292.298     -47.613492     -604.522       -776.95333      6540.9417      3798.4131      10339.355      170285.89      43.788507      43.788507      88.809289          16000 
   3998000   3178.8806      98609.177      7186.8431      108426.58      108292.28      79108.676      1700.0725     -1057.455       637.34756      6574.0303      3758.3531      10332.383      170387.95      43.797253      43.797253      88.827028          16000 
   3999000   3199.4077      97559.698      7193.9289      107402.85      106248.93      79027.316      811.53523      1040.8354     -580.36075      6616.4809      3710.894       10327.375      170463.05      43.803687      43.803687      88.840076          16000 
   4000000   3177.8809      98632.759      7201.0147      107974.23      107616.91      80307.139      1103.6485      1362.4763      304.05292      6571.9629      3759.1861      10331.149      170402.69      43.798516      43.798516      88.829589          16000 
Loop time of 7201.01 on 8 procs for 1000000 steps with 16000 atoms

Performance: 5.999 ns/day, 4.001 hours/ns, 138.869 timesteps/s
62.2% CPU use with 1 MPI tasks x 8 OpenMP threads

MPI task timing breakdown:
Section |  min time  |  avg time  |  max time  |%varavg| %total
---------------------------------------------------------------
Pair    | 6896.4     | 6896.4     | 6896.4     |   0.0 | 95.77
Neigh   | 9.4313     | 9.4313     | 9.4313     |   0.0 |  0.13
Comm    | 49.314     | 49.314     | 49.314     |   0.0 |  0.68
Output  | 1.5115     | 1.5115     | 1.5115     |   0.0 |  0.02
Modify  | 215.46     | 215.46     | 215.46     |   0.0 |  2.99
Other   |            | 28.85      |            |       |  0.40

Nlocal:          16000 ave       16000 max       16000 min
Histogram: 1 0 0 0 0 0 0 0 0 0
Nghost:          13635 ave       13635 max       13635 min
Histogram: 1 0 0 0 0 0 0 0 0 0
Neighs:              0 ave           0 max           0 min
Histogram: 1 0 0 0 0 0 0 0 0 0
FullNghs:  1.37819e+06 ave 1.37819e+06 max 1.37819e+06 min
Histogram: 1 0 0 0 0 0 0 0 0 0

Total # of neighbors = 1378194
Ave neighs/atom = 86.137125
Neighbor list builds = 27766
Dangerous builds = 0
Total wall time: 7:18:18
