
atom_style atomic
units metal
boundary p p p
#atom_modify sort 0 0.0
newton on

read_data data.lammps
Reading data file ...
  triclinic box = (0 0 0) to (4.3790145 4.3790145 4.3790145) with tilt (-0 0 0)
  1 by 1 by 1 MPI processor grid
  reading atoms ...
  8 atoms
  read_data CPU = 0.002 seconds
replicate 10 10 20
Replicating atoms ...
  triclinic box = (0 0 0) to (43.790145 43.790145 87.58029) with tilt (-0 0 0)
  1 by 1 by 1 MPI processor grid
  16000 atoms
  replicate CPU = 0.010 seconds

### interactions

pair_style flare
pair_coeff * * lmp.flare
Reading potential file lmp.flare with DATE: Thu

# compute unc all flare/std/atom L_inv_lmp.flare sparse_desc_lmp.flare
# compute MaxUnc all reduce max c_unc

mass 1 12.011000
mass 2 28.085000

thermo_style custom step temp press cpu pxx pyy pzz pxy pxz pyz ke pe etotal vol lx ly lz atoms    #c_MaxUnc
thermo 1000
timestep 0.0005
restart 100000 restart_*.dat

#################### Equilibrate at P and T_es ##############################
velocity all create $T 41928459 rot yes dist gaussian
velocity all create 3800 41928459 rot yes dist gaussian
fix mom all momentum 1000 linear 1 1 1 angular

fix 1 all npt temp $T $T $(100.0*dt) iso $P $P $(1000.0*dt)
fix 1 all npt temp 3800 $T $(100.0*dt) iso $P $P $(1000.0*dt)
fix 1 all npt temp 3800 3800 $(100.0*dt) iso $P $P $(1000.0*dt)
fix 1 all npt temp 3800 3800 0.050000000000000002776 iso $P $P $(1000.0*dt)
fix 1 all npt temp 3800 3800 0.050000000000000002776 iso 100000 $P $(1000.0*dt)
fix 1 all npt temp 3800 3800 0.050000000000000002776 iso 100000 100000 $(1000.0*dt)
fix 1 all npt temp 3800 3800 0.050000000000000002776 iso 100000 100000 0.5
dump 1 all custom 1000 1equil.bin id type x y z vx vy vz
run   10000 # report performance
Neighbor list info ...
  update every 1 steps, delay 10 steps, check yes
  max neighbors/atom: 2000, page size: 100000
  master list distance cutoff = 6
  ghost atom cutoff = 6
  binsize = 6, bins = 8 8 15
  1 neighbor lists, perpetual/occasional/extra = 1 0 0
  (1) pair flare/kk, perpetual
      attributes: full, newton on, kokkos_device
      pair build: full/bin/kk/device
      stencil: full/bin/3d
      bin: kk/device
Per MPI rank memory allocation (min/avg/max) = 15.9 | 15.9 | 15.9 Mbytes
   Step          Temp          Press           CPU            Pxx            Pyy            Pzz            Pxy            Pxz            Pyz           KinEng         PotEng         TotEng         Volume           Lx             Ly             Lz          Atoms   
         0   3800           68690.109      0              68311.667      68862.63       68896.03      -527.30309      237.49657     -596.18676      7858.5256     -4109.4047      3749.1209      167941.93      43.790145      43.790145      87.58029           16000 
      1000   3684.0063      99265.316      6.3452743      99531.488      99937.356      98327.104     -1647.5127      2195.2416      1412.648       7618.6469      4677.8398      12296.487      171381.74      44.087098      44.087098      88.174197          16000 
      2000   3831.1138      96820.832      12.619939      96483.93       97182.411      96796.157     -2236.5495      292.27865      893.19268      7922.87        5043.7363      12966.606      172158.54      44.153607      44.153607      88.307215          16000 
      3000   3803.2752      99290.367      18.894633      101220.49      98524.648      98125.958     -718.91009     -504.94808     -1061.5846      7865.2988      4796.8675      12662.166      171708.58      44.115107      44.115107      88.230214          16000 
      4000   3766.8464      100275.51      25.178627      101304.17      100008.24      99514.111      2088.1508      218.63611     -1285.4361      7789.9628      4902.0992      12692.062      171755.7       44.119142      44.119142      88.238284          16000 
      5000   3828.5647      98742.462      31.451412      97870.059      99524.684      98832.644      1602.4204      2452.2912     -825.08462      7917.5983      4951.4609      12869.059      172048.9       44.144232      44.144232      88.288464          16000 
      6000   3786.3031      99962.11       37.725195      99670.051      99862.364      100353.91      1396.7911      1134.4269     -64.957999      7830.2         4795.633       12625.833      171702.38      44.114576      44.114576      88.229152          16000 
      7000   3780.2344      99093.907      43.998396      98427.558      98297.756      100556.41      367.00038     -1689.1232     -1756.7345      7817.6497      4877.2312      12694.881      171871.31      44.129038      44.129038      88.258076          16000 
      8000   3794.7649      98797.708      50.272431      98410.874      99890.787      98091.462      1367.3256     -1325.3087      2035.2214      7847.6993      4982.6885      12830.388      172008.4       44.140768      44.140768      88.281536          16000 
      9000   3751.7281      102644.45      56.544047      102163.13      103173.12      102597.11      665.27847     -2198.1895      3867.2434      7758.6977      4932.536       12691.234      171737.7       44.1176        44.1176        88.2352            16000 
     10000   3801.176       102924.24      62.815603      101229.4       103448.74      104094.59     -1495.7605      2022.9204     -1061.7096      7860.9575      4872.8253      12733.783      171449.79      44.092933      44.092933      88.185866          16000 
Loop time of 62.8156 on 8 procs for 10000 steps with 16000 atoms

Performance: 6.877 ns/day, 3.490 hours/ns, 159.196 timesteps/s
61.5% CPU use with 1 MPI tasks x 8 OpenMP threads

MPI task timing breakdown:
Section |  min time  |  avg time  |  max time  |%varavg| %total
---------------------------------------------------------------
Pair    | 59.794     | 59.794     | 59.794     |   0.0 | 95.19
Neigh   | 0.098089   | 0.098089   | 0.098089   |   0.0 |  0.16
Comm    | 0.36496    | 0.36496    | 0.36496    |   0.0 |  0.58
Output  | 0.0209     | 0.0209     | 0.0209     |   0.0 |  0.03
Modify  | 2.287      | 2.287      | 2.287      |   0.0 |  3.64
Other   |            | 0.2506     |            |       |  0.40

Nlocal:          16000 ave       16000 max       16000 min
Histogram: 1 0 0 0 0 0 0 0 0 0
Nghost:          13586 ave       13586 max       13586 min
Histogram: 1 0 0 0 0 0 0 0 0 0
Neighs:              0 ave           0 max           0 min
Histogram: 1 0 0 0 0 0 0 0 0 0
FullNghs:  1.37083e+06 ave 1.37083e+06 max 1.37083e+06 min
Histogram: 1 0 0 0 0 0 0 0 0 0

Total # of neighbors = 1370826
Ave neighs/atom = 85.676625
Neighbor list builds = 314
Dangerous builds = 0
run  990000
Per MPI rank memory allocation (min/avg/max) = 16.08 | 16.08 | 16.08 Mbytes
   Step          Temp          Press           CPU            Pxx            Pyy            Pzz            Pxy            Pxz            Pyz           KinEng         PotEng         TotEng         Volume           Lx             Ly             Lz          Atoms   
     10000   3801.176       102924.24      0              101229.4       103448.74      104094.59     -1495.7605      2022.9204     -1061.7096      7860.9575      4872.8253      12733.783      171449.79      44.092933      44.092933      88.185866          16000 
     11000   3877.4032      103883.81      6.2685989      104769.39      103195.16      103686.87     -185.459        472.50889      393.7988       8018.598       4873.8028      12892.401      171636.18      44.108906      44.108906      88.217811          16000 
     12000   3820.1443      100476.45      12.538561      100723.21      100372.28      100333.85      237.46154     -503.25295      365.70762      7900.1848      4826.6437      12726.828      171795.91      44.122584      44.122584      88.245168          16000 
     13000   3785.0986      99376.679      18.809268      99274.838      99110.429      99744.77      -1181.1505      1934.3123      283.63171      7827.7091      4827.7821      12655.491      171781.67      44.121365      44.121365      88.24273           16000 
     14000   3835.4287      97001.804      25.078162      98149.746      96734.567      96121.1       -1477.2824     -215.23015      417.46121      7931.7933      4899.7456      12831.539      172052.2       44.144514      44.144514      88.289029          16000 
     15000   3829.1477      101068.15      31.34844       101618.43      101852.29      99733.744      591.90863     -940.09036     -1027.538       7918.8041      4817.6821      12736.486      171718.96      44.115996      44.115996      88.231992          16000 
     16000   3825.2527      101453.06      37.620421      101355.61      100900.09      102103.47     -765.82323     -397.69508     -66.816361      7910.749       4871.2252      12781.974      171715.19      44.115673      44.115673      88.231346          16000 
     17000   3836.1688      106540.98      43.890835      106037.74      105862.26      107722.93      377.572        319.2639      -7.628944       7933.3238      5004.1483      12937.472      171395.84      44.088308      44.088308      88.176615          16000 
     18000   3795.9815      102646.09      50.160707      102341.31      102943.44      102653.51      1008.8361     -2456.16       -1982.1634      7850.2153      4930.8591      12781.074      171585.48      44.104562      44.104562      88.209124          16000 
     19000   3805.8425      100425.36      56.430549      99562.637      101509.3       100204.13     -2657.213      -720.8121       1100.0096      7870.6082      4908.8452      12779.453      171838.27      44.12621       44.12621       88.25242           16000 
     20000   3763.2432      101186.03      62.699945      101069.01      102442.57      100046.52      1707.5407     -1110.9505     -698.87736      7782.5113      4832.9192      12615.43       171587.25      44.104713      44.104713      88.209427          16000 
     21000   3801.2499      95462.227      68.971623      94488.318      96778.537      95119.826     -12.475807      1097.375       817.50559      7861.1105      4928.5538      12789.664      172170.34      44.154616      44.154616      88.309233          16000 
     22000   3800.6075      98062.554      75.240717      97707.714      98070.806      98409.143      163.60273      1716.6244      1762.9084      7859.782       4870.0797      12729.862      171951.04      44.135861      44.135861      88.271722          16000 
     23000   3790.4369      101812.72      81.511263      101438.91      101541.99      102457.27      1161.6619      1738.5908      797.5005       7838.7488      4873.4882      12712.237      171670.15      44.111815      44.111815      88.223631          16000 
     24000   3786.4685      100402.28      87.778779      99900.96       100710.57      100595.32     -680.51582      444.76235     -1070.4123      7830.542       4892.6837      12723.226      171714.29      44.115596      44.115596      88.231192          16000 
     25000   3827.5645      99743.029      94.047845      100471.97      99613.541      99143.572     -244.06279      842.04284      594.8001       7915.5298      4852.4293      12767.959      171874.66      44.129325      44.129325      88.25865           16000 
     26000   3821.8838      100778.94      100.32487      101833.29      99299.438      101204.08      871.96        -98.786939     -513.99753      7903.7821      4833.9447      12737.727      171755.02      44.119083      44.119083      88.238167          16000 
     27000   3791.1862      98214.725      106.59109      99059.294      98463.777      97121.104      1817.0325     -2471.3077     -1800.3994      7840.2984      5015.8478      12856.146      172108.79      44.149353      44.149353      88.298707          16000 
     28000   3820.4544      99097.921      112.86113      99782.273      99672.619      97838.872     -847.4807      -1027.6702      1307.0298      7900.8259      4811.845       12712.671      171920.27      44.133228      44.133228      88.266457          16000 
     29000   3797.8344      102019.59      119.13491      103337.32      101453.29      101268.18     -2135.2694      2246.7658     -1567.0374      7854.0472      4771.794       12625.841      171571.9       44.103399      44.103399      88.206797          16000 
     30000   3828.9687      104442.2       125.40142      105120.69      104413.31      103792.6       2060.7941     -872.86018      331.00245      7918.4338      4869.0419      12787.476      171446.73      44.09267       44.09267       88.185341          16000 
     31000   3820.6799      99998.867      131.67454      99666.429      101206.68      99123.491     -892.28567      1020.5756      2939.6386      7901.2923      4891.8627      12793.155      171797.72      44.12274       44.12274       88.245479          16000 
     32000   3775.1305      97378.525      137.94527      96224.107      97607.696      98303.772     -830.7568      -1697.2023     -2678.9741      7807.0946      4764.1118      12571.206      171963.34      44.136913      44.136913      88.273826          16000 
     33000   3790.2705      95424.198      144.21223      95194.119      95380.544      95697.932     -2285.7619     -1539.1267      508.52456      7838.4047      4844.2968      12682.702      172087.91      44.147568      44.147568      88.295137          16000 
     34000   3781.6758      96826.742      150.47845      94646.918      97958.092      97875.218      556.88869     -18.703283      164.67913      7820.6305      4775.3547      12595.985      172028.1       44.142453      44.142453      88.284906          16000 
     35000   3824.1054      98632.166      156.74392      99811.641      97092.703      98992.154     -2595.3315      1007.2636      881.78193      7908.3763      4782.1844      12690.561      171906.38      44.13204       44.13204       88.264079          16000 
     36000   3804.9266      104139.89      163.01141      103893.13      103831.35      104695.19      1376.3799      1402.1648     -1423.1446      7868.714       4873.4813      12742.195      171580.38      44.104125      44.104125      88.208251          16000 
     37000   3821.7443      102665.59      169.27625      102760.78      101159.85      104076.13     -20.188165     -989.49797      689.98075      7903.4935      4932.0833      12835.577      171676.68      44.112375      44.112375      88.22475           16000 
     38000   3774.5857      101312.46      175.54265      101922.16      101778         100237.22      842.19059      269.63661      408.85879      7805.9679      4860.2254      12666.193      171581.94      44.104258      44.104258      88.208516          16000 
     39000   3794.3311      96800.92       181.80872      96785.232      96751.087      96866.441     -3123.6954     -226.60431     -364.42203      7846.8021      4939.3327      12786.135      172131.82      44.151323      44.151323      88.302646          16000 
     40000   3789.1761      95259.557      188.077        95344.068      96342.804      94091.8       -1066.023       353.90034      300.23351      7836.1413      4838.1708      12674.312      172166.42      44.154281      44.154281      88.308561          16000 
     41000   3810.9851      101194.7       194.34122      101158.62      101725.27      100700.21     -726.09407      376.28012     -372.70183      7881.2433      4815.0432      12696.286      171615.47      44.107131      44.107131      88.214262          16000 
     42000   3800.3289      101124.66      200.60997      100575.36      101734.86      101063.76     -336.59576     -145.00644      242.60902      7859.2058      4941.7259      12800.932      171707.94      44.115052      44.115052      88.230103          16000 
     43000   3804.726       103374.82      206.87614      102211.35      103374.61      104538.49      171.13606     -702.84333      664.62275      7868.2991      4794.4887      12662.788      171433.96      44.091576      44.091576      88.183151          16000 
     44000   3812.0242      100196.22      213.14199      99964.457      99049.132      101575.06      313.00152     -403.5225      -2477.6713      7883.392       4855.6563      12739.048      171869.18      44.128856      44.128856      88.257713          16000 
     45000   3802.9033      99300.438      219.4095       99387.259      98381.939      100132.12     -2801.1212      621.11275      919.34147      7864.5297      4828.0406      12692.57       171819.76      44.124626      44.124626      88.249252          16000 
     46000   3788.5539      99794.4        225.67431      98581.291      100617.15      100184.76      766.95624     -147.05551     -248.66687      7834.8547      4895.7404      12730.595      171821.01      44.124733      44.124733      88.249466          16000 
     47000   3804.5698      99174.525      231.94124      99184.652      99558.702      98780.221      1009.0208     -558.673        888.536        7867.9762      4836.1398      12704.116      171894.95      44.131062      44.131062      88.262123          16000 
     48000   3819.6516      99748.547      238.20522      101420.47      98879.637      98945.537      1953.5062      1023.2182      1479.8503      7899.1658      4983.7363      12882.902      171952.48      44.135984      44.135984      88.271968          16000 
     49000   3810.3746      103407.74      244.47067      104025.3       103275.16      102922.74     -251.80414      109.74804     -1083.0209      7879.9807      4887.0286      12767.009      171693.68      44.11383       44.11383       88.227661          16000 
     50000   3797.5192      100628.43      250.73664      101464.88      100200.38      100220.04     -655.07485     -307.33121     -793.60184      7853.3953      4903.9295      12757.325      171788.6       44.121958      44.121958      88.243917          16000 
     51000   3776.6966      96734.429      257.00151      96805.032      95832.869      97565.385      516.03496      95.209385      1049.49        7810.3333      4954.0842      12764.418      172161.7       44.153878      44.153878      88.307756          16000 
     52000   3750.0538      98081.316      263.26961      97734.997      99099.591      97409.36       1791.0115     -466.75451      513.41137      7755.2353      4792.3117      12547.547      171905.87      44.131996      44.131996      88.263992          16000 
     53000   3782.8876      96746.466      269.53601      96872.955      96842.719      96523.723     -2543.0561      1069.835      -1360.0304      7823.1367      4942.3996      12765.536      172122.87      44.150558      44.150558      88.301116          16000 
     54000   3808.7156      102558.92      275.80279      103610.98      102791.03      101274.76     -837.21462      61.473387      774.74092      7876.5497      4876.9121      12753.462      171630.03      44.108378      44.108378      88.216757          16000 
     55000   3762.5758      99994.895      282.06966      98241.462      100970.05      100773.17     -1582.4144      2247.7756      1212.9628      7781.1311      4833.7454      12614.876      171674.08      44.112152      44.112152      88.224303          16000 
     56000   3811.0058      98164.542      288.33543      97712.564      96602.076      100178.99      319.71473      787.48626     -1560.4195      7881.286       4872.4419      12753.728      171923.52      44.133506      44.133506      88.267012          16000 
     57000   3809.5569      100488.15      294.60019      100659.1       100654.21      100151.14     -355.77283      46.468019      78.208442      7878.2895      4890.5872      12768.877      171694.16      44.113871      44.113871      88.227743          16000 
     58000   3810.4026      100237.64      300.86646      100721.34      101292.64      98698.955      478.25101     -1560.7537      174.53656      7880.0386      4843.5955      12723.634      171770.23      44.120385      44.120385      88.240771          16000 
     59000   3759.7086      100144.41      307.13032      98657.597      101111.03      100664.6       1459.2996     -735.72889     -33.226337      7775.2017      4966.0006      12741.202      171880.86      44.129856      44.129856      88.259712          16000 
     60000   3773.0443      99665.838      313.39556      100415.59      100113.2       98468.72      -134.38712      231.74962     -508.68316      7802.7804      4815.7162      12618.497      171755.37      44.119113      44.119113      88.238227          16000 
     61000   3799.1264      97265.902      319.66041      97504.042      98054.493      96239.171      1527.655      -1123.5994      1136.1485      7856.7191      4832.158       12688.877      172121.5       44.15044       44.15044       88.30088           16000 
     62000   3842.4622      95665.341      325.92548      95506.361      95562.207      95927.454     -878.18555     -899.98368     -409.71365      7946.3389      4834.3742      12780.713      172179.69      44.155416      44.155416      88.310832          16000 
     63000   3790.4935      98074.128      332.18966      97541.045      98358.205      98323.135      763.60991     -2555.8882     -830.22415      7838.8659      4846.7153      12685.581      171935.49      44.134531      44.134531      88.269062          16000 
     64000   3844.2621      97473.653      338.45835      98066.989      96845.185      97508.786     -1861.0943      2529.9796     -615.95398      7950.0611      4864.3922      12814.453      172074.94      44.146459      44.146459      88.292918          16000 
     65000   3845.5911      99067.041      344.72231      100115         98205.785      98880.34      -1125.4035      54.333256     -546.42036      7952.8096      4860.4593      12813.269      171967.99      44.137311      44.137311      88.274622          16000 
     66000   3778.249       100154.9       350.98724      100546.75      100022.44      99895.52      -1495.8488      2505.7288      1069.1374      7813.5438      4990.4072      12803.951      171880.36      44.129813      44.129813      88.259626          16000 
     67000   3806.3922      105616.28      357.25397      106630.8       104527.01      105691.04      936.0982       80.020541     -2547.8818      7871.7449      4903.9037      12775.649      171429.65      44.091206      44.091206      88.182412          16000 
     68000   3836.9312      102470.28      363.51832      101591.72      103525.06      102294.06     -697.10078     -2916.6013     -93.312118      7934.9006      4918.4608      12853.361      171592.38      44.105153      44.105153      88.210306          16000 
     69000   3835.3209      101777.36      369.78366      101982.57      102333.8       101015.72      1613.8075      412.54194      30.693497      7931.5705      4851.6528      12783.223      171674.33      44.112173      44.112173      88.224346          16000 
     70000   3799.1202      102496.84      376.04872      102512.06      103717.58      101260.89     -443.5273       833.87766      350.76757      7856.7062      4928.4115      12785.118      171598.27      44.105658      44.105658      88.211315          16000 
     71000   3807.885       99830.637      382.31552      100871.85      98797.903      99822.159     -1095.5524     -1197.9798      177.4776       7874.8322      5033.1949      12908.027      171940.5       44.134959      44.134959      88.269918          16000 
     72000   3772.9344      99328.376      388.58136      98206.599      97999.096      101779.43      691.09059     -156.98476     -1058.9265      7802.5531      4887.4193      12689.972      171772.24      44.120557      44.120557      88.241115          16000 
     73000   3819.2166      97808.744      394.8486       97353.667      99083.026      96989.539     -1129.6968     -769.91785     -1237.3717      7898.2661      4885.694       12783.96       172087.6       44.147542      44.147542      88.295084          16000 
     74000   3795.6769      97634.34       401.11932      97925.404      97332.112      97645.505     -876.62443     -2733.5218      1287.3174      7849.5852      4909.956       12759.541      172005.82      44.140547      44.140547      88.281095          16000 
     75000   3822.0444      96733.791      407.38734      98606.689      95823.619      95771.065     -2413.9212      252.41871     -47.197947      7904.1141      4792.8815      12696.996      172088.5       44.147619      44.147619      88.295238          16000 
     76000   3767.3161      98704.598      413.65776      98586.938      99003.96       98522.897      3002.4597      877.07887      1069.1713      7790.9342      4816.1073      12607.042      171783.52      44.121523      44.121523      88.243047          16000 
     77000   3791.2342      101523.07      419.92647      100335.64      100212.93      104020.65     -256.40052      1301.1178     -1108.4395      7840.3977      4956.8727      12797.27       171645.17      44.109676      44.109676      88.219352          16000 
     78000   3789.9672      100221.36      426.19512      100158.41      99877.447      100628.22      60.374707      2382.15        258.96878      7837.7775      4970.7294      12808.507      171856.34      44.127757      44.127757      88.255515          16000 
     79000   3792.978       101564.6       432.46508      101828.42      101525.63      101339.73      805.2477      -2645.0084      1052.9508      7844.004       4887.5674      12731.571      171577.77      44.103902      44.103902      88.207803          16000 
     80000   3827.2801      100683.68      438.73451      99110.658      100103         102837.39     -194.36263     -1644.18        1941.488       7914.9417      4958.7615      12873.703      171770.61      44.120419      44.120419      88.240837          16000 
     81000   3833.2004      105101.65      445.00439      105353.1       104477.93      105473.92     -551.19922     -932.47341     -2287.0134      7927.1851      4824.1804      12751.366      171413.2       44.089796      44.089796      88.179591          16000 
     82000   3828.6323      105483.8       451.2725       104516.72      106004.46      105930.22      1619.5303      1719.0389      260.90252      7917.7382      4916.465       12834.203      171411.02      44.089609      44.089609      88.179218          16000 
     83000   3814.3454      100549.39      457.54199      100007.72      100242.46      101398         1202.3469      4.3425402      346.05706      7888.1924      4872.9794      12761.172      171768.58      44.120244      44.120244      88.240488          16000 
     84000   3755.4776      99154.556      463.81261      97738.644      99078.592      100646.43     -3271.681      -1677.5272     -180.01327      7766.4519      4928.6105      12695.062      171994.94      44.139617      44.139617      88.279234          16000 
     85000   3767.2224      99015.437      470.08661      100550.59      98242.656      98253.064     -911.85375     -1027.998       302.07423      7790.7404      4861.0218      12651.762      171793.04      44.122339      44.122339      88.244677          16000 
     86000   3809.9617      99798.041      476.35802      99905.358      98646.042      100842.72      441.89623     -279.6609       396.37014      7879.1267      4876.8192      12755.946      171934.88      44.134479      44.134479      88.268957          16000 
     87000   3811.2232      100339.35      482.62956      99762.839      101235.07      100020.14     -377.56246     -94.913098     -645.34151      7881.7356      4989.6083      12871.344      171888.66      44.130523      44.130523      88.261046          16000 
     88000   3826.6104      103102.46      488.90312      102531.73      103416.28      103359.37      314.41571      1821.343      -2006.7889      7913.5568      4859.9006      12773.457      171633.7       44.108693      44.108693      88.217386          16000 
     89000   3824.7661      102359.34      495.17759      103052.03      101042         102984         2632.0457      859.26338     -306.21275      7909.7428      4948.7512      12858.494      171795.69      44.122566      44.122566      88.245131          16000 
     90000   3803.4558      103520.96      501.45564      103485.25      104054.06      103023.58      698.36325     -680.00686      1095.8993      7865.6723      4931.0519      12796.724      171594.24      44.105312      44.105312      88.210625          16000 
     91000   3800.4547      105281.78      507.74183      105567.16      105349.14      104929.06     -2641.1951      490.95967     -6.6691063      7859.4659      4954.1857      12813.652      171398.72      44.088554      44.088554      88.177108          16000 
     92000   3774.0763      98911.202      514.03792      98513.428      98955.613      99264.566      1223.9771      591.59011      578.10905      7804.9145      4957.5255      12762.44       171908.55      44.132225      44.132225      88.26445           16000 
     93000   3789.8221      101041.2       520.33495      100583.64      102159.75      100380.22      1651.983      -107.19878      559.61731      7837.4774      4788.8641      12626.342      171780.81      44.121292      44.121292      88.242584          16000 
     94000   3788.3399      99051.938      526.63088      98924.365      99870.93       98360.52       615.18668     -1729.4153      53.727457      7834.4121      4998.375       12832.787      172061.66      44.145323      44.145323      88.290647          16000 
     95000   3849.7536      101838.17      532.92867      101552.74      102990.39      100971.39     -2310.4679     -3429.8612      1268.9304      7961.4177      4826.7745      12788.192      171620.4       44.107554      44.107554      88.215107          16000 
     96000   3788.0471      102686.98      539.23485      101498.98      103853.76      102708.22     -1805.7605      450.83057     -405.19751      7833.8066      4971.6045      12805.411      171572.96      44.103489      44.103489      88.206979          16000 
     97000   3829.9314      102503.84      545.53083      101395.68      101467.85      104648        -37.478308      553.94206     -1338.0151      7920.4248      4963.1166      12883.541      171757.15      44.119265      44.119265      88.238531          16000 
     98000   3788.1494      102605.64      551.82605      102016.35      102454.97      103345.61      618.52666      568.43552     -272.10294      7834.0182      4928.4605      12762.479      171678.28      44.112512      44.112512      88.225024          16000 
     99000   3790.3029      97058.739      558.10957      97280.988      97551.109      96344.12       1824.1522     -486.89462     -907.15674      7838.4717      4854.1662      12692.638      172032.74      44.14285       44.14285       88.2857            16000 
    100000   3765.8497      96003.975      564.40978      95264.01       95843.559      96904.358     -417.32354     -318.44487      548.50757      7787.9017      4872.305       12660.207      172146.16      44.152549      44.152549      88.305098          16000 
    101000   3782.5456      97401.356      570.70623      97595.871      97823.164      96785.034     -55.837561      36.458659      825.90092      7822.4294      4900.0451      12722.474      172044.93      44.143892      44.143892      88.287785          16000 
    102000   3805.6473      98257.005      577.00168      99210.853      99412.226      96147.937      1955.4791      793.00453     -521.90476      7870.2044      4811.1244      12681.329      171960.87      44.136702      44.136702      88.273404          16000 
    103000   3804.42        101509.78      583.29865      100767.58      102558.98      101202.77      947.69571     -3562.4044      865.3967       7867.6663      4940.8477      12808.514      171768.83      44.120266      44.120266      88.240531          16000 
    104000   3848.659       102391.22      589.59256      102564.57      102631.44      101977.63     -1374.2766     -804.68329     -978.54495      7959.154       4958.105       12917.259      171807.49      44.123576      44.123576      88.247152          16000 
    105000   3786.0058      100171.63      595.88822      100476.54      99802.378      100235.96     -366.33764      1112.0274      351.49365      7829.5852      4964.455       12794.04       171793.67      44.122392      44.122392      88.244784          16000 
    106000   3833.4418      100525.68      602.18593      99644.285      101644.37      100288.4      -608.57484      439.56371     -797.88774      7927.6845      5034.2135      12961.898      172073.5       44.146337      44.146337      88.292673          16000 
    107000   3768.5281      101241.55      608.48307      101880.02      101383.85      100460.79      2600.7527     -3384.6179      28.375792      7793.4407      4949.3027      12742.743      171811.65      44.123932      44.123932      88.247864          16000 
    108000   3833.1014      98009.35       614.78325      97775.097      98055.471      98197.482      142.1384       1295.7233      521.89948      7926.9804      4962.9351      12889.916      172052.12      44.144508      44.144508      88.289016          16000 
    109000   3798.1834      103097.59      621.07939      104361.4       101956.04      102975.33     -161.86213     -1084.1305     -351.12892      7854.7689      4947.072       12801.841      171688.45      44.113383      44.113383      88.226765          16000 
    110000   3802.0783      100886.68      627.37457      100613.21      100403         101643.83     -696.98592      1330.5329      1045.3953      7862.8237      4896.1332      12758.957      171779.95      44.121218      44.121218      88.242437          16000 
    111000   3797.884       103936.09      633.67123      103058.36      105222.44      103527.48     -547.58573     -1657.9537      1382.719       7854.1496      4965.3455      12819.495      171622.57      44.10774       44.10774       88.215479          16000 
    112000   3802.2595      101276.56      639.96536      101969.39      101097.28      100763.01      590.19541      376.22131     -432.8478       7863.1984      4882.2658      12745.464      171755.39      44.119115      44.119115      88.23823           16000 
    113000   3811.4591      101628.45      646.2489       101606.29      101876.5       101402.57     -1985.0728     -558.04588      894.45899      7882.2234      4926.5602      12808.784      171804.71      44.123337      44.123337      88.246674          16000 
    114000   3846.7753      101830.43      652.51942      101510.72      101170.82      102809.75      657.02408     -393.52685      1541.7452      7955.2584      4954.8413      12910.1        171725.21      44.116531      44.116531      88.233062          16000 
    115000   3754.1734      101728.24      658.78776      102628         102221.37      100335.35      1581.1826      3866.339       800.39388      7763.7547      4988.048       12751.803      171783.36      44.12151       44.12151       88.24302           16000 
    116000   3785.8596      101545.59      665.05721      101300.28      101788.92      101547.58      525.6457       1070.0743      2378.4294      7829.2828      4916.2747      12745.557      171763.25      44.119788      44.119788      88.239577          16000 
    117000   3794.4273      97943.757      671.32557      98689.623      96904.758      98236.89       317.95128     -144.23685      747.21402      7847.0011      4880.9357      12727.937      171989.59      44.139159      44.139159      88.278318          16000 
    118000   3765.608       103268.37      677.59383      103607.63      102698.74      103498.75     -1091.3804     -1513.1443      266.75695      7787.4018      4976.5974      12763.999      171615.17      44.107106      44.107106      88.214212          16000 
    119000   3817.3985      106196.31      683.86374      104608.27      107297.43      106683.24      813.25241      454.52091      1368.5311      7894.5063      4766.1777      12660.684      171186.12      44.070318      44.070318      88.140635          16000 
    120000   3783.0847      100494.17      690.13011      100511.08      98965.625      102005.79     -2043.5481     -713.82532      1540.0654      7823.5442      4998.817       12822.361      171803.91      44.123269      44.123269      88.246539          16000 
    121000   3853.4055      96834.668      696.39817      97246.899      97556.834      95700.271     -2064.3459     -550.15702     -731.63622      7968.9699      4870.5199      12839.49       172101.17      44.148703      44.148703      88.297405          16000 
    122000   3807.2003      99325.833      702.66627      98841.099      98803.246      100333.15      1257.2511      296.75659     -29.060753      7873.4161      4878.1443      12751.56       171758.85      44.119412      44.119412      88.238824          16000 
    123000   3783.5429      102908.44      708.93483      102883.54      101864.47      103977.31     -1931.3796     -1056.7385     -614.72025      7824.4918      4881.7413      12706.233      171523.63      44.099262      44.099262      88.198524          16000 
    124000   3794.819       100923.62      715.2028       99995.212      101924.55      100851.1      -743.52695      1086.8585      792.50307      7847.8112      4950.6039      12798.415      171810.02      44.123792      44.123792      88.247585          16000 
    125000   3799.603       97024.422      721.47091      95671.222      97403.604      97998.438      676.24389     -1825.7752     -58.24712       7857.7047      4812.1627      12669.867      172060.72      44.145243      44.145243      88.290486          16000 
    126000   3799.3156      96010.05       727.74047      94667.486      97767.105      95595.559     -3816.6242      1765.8145      736.43758      7857.1102      4944.5197      12801.63       172294.12      44.165195      44.165195      88.33039           16000 
    127000   3789.1645      99944.679      734.00815      98573.723      100595.85      100664.47      193.24635      1115.7141      1803.3119      7836.1175      4794.4794      12630.597      171740.43      44.117834      44.117834      88.235668          16000 
    128000   3782.1952      99547.387      740.27622      99327.798      99926.155      99388.206      1280.31        638.16153     -2296.5886      7821.7047      4857.452       12679.157      171888.79      44.130535      44.130535      88.261069          16000 
    129000   3823.0705      96882.32       746.54371      97087.088      96274.587      97285.287      797.60159     -555.92848     -1102.8913      7906.2361      4882.5161      12788.752      172103.81      44.148928      44.148928      88.297856          16000 
    130000   3835.1844      101389.06      752.81427      101976.7       101865.03      100325.44     -4705.136       2432.5751     -101.69984      7931.2882      4845.9007      12777.189      171792.47      44.12229       44.12229       88.24458           16000 
    131000   3801.8204      105734.32      759.08989      106436.02      104644.68      106122.25      1157.4158      1098.4481     -928.37314      7862.2903      4934.8814      12797.172      171344         44.083862      44.083862      88.167724          16000 
    132000   3851.3271      100690.22      765.36329      101555.12      101274.48      99241.07      -2789.6157     -534.12525      320.52215      7964.6719      4901.624       12866.296      171845.35      44.126816      44.126816      88.253633          16000 
    133000   3833.9466      98412.666      771.63929      96988.772      99772.095      98477.131      722.71316      542.11418      1971.3053      7928.7283      4934.8461      12863.574      171992.58      44.139415      44.139415      88.27883           16000 
    134000   3846.2904      99293.117      777.92056      97762.449      99628.662      100488.24     -458.13982      353.56319      2256.8246      7954.2557      4823.1945      12777.45       171798.11      44.122772      44.122772      88.245545          16000 
    135000   3759.2836      96528.999      784.20943      96686.653      97146.745      95753.598     -1990.1001     -82.44247       387.81168      7774.3228      4969.676       12743.999      171991.07      44.139286      44.139286      88.278572          16000 
    136000   3752.0168      99123.304      790.49785      99821.213      98455.121      99093.579      53.526738      2159.6197     -1469.7114      7759.2949      4932.8223      12692.117      171863.41      44.128362      44.128362      88.256724          16000 
    137000   3803.6567      98587.652      796.79362      97972.59       99558.746      98231.619     -661.93049     -582.66117     -1447.8316      7866.0878      4925.3351      12791.423      171988.15      44.139036      44.139036      88.278071          16000 
    138000   3786.8153      101550.71      803.09125      100954.48      101608.36      102089.3      -3306.6821      899.68962      3131.0531      7831.2591      4996.7494      12828.008      171901.05      44.131583      44.131583      88.263166          16000 
    139000   3811.7393      103194.63      809.38759      103087.36      104930.48      101566.06     -1882.8656      46.46081       102.17564      7882.8029      4978.661       12861.464      171741.1       44.117891      44.117891      88.235782          16000 
    140000   3805.2446      103533.69      815.68775      102227.26      103396.71      104977.09      3229.3431     -124.33516     -562.30592      7869.3717      4957.2722      12826.644      171664.37      44.111321      44.111321      88.222641          16000 
    141000   3794.3083      100703.87      821.98344      100554.72      99791.547      101765.36      3555.2191      1616.8718      385.65688      7846.7549      5062.6866      12909.442      171949.96      44.135768      44.135768      88.271537          16000 
    142000   3791.5311      101668.82      828.28314      102651.41      99808.651      102546.42      373.51606      1561.9643      731.86009      7841.0117      4891.5192      12732.531      171730.52      44.116985      44.116985      88.233971          16000 
    143000   3826.9805      97800.361      834.58366      96804.204      98125.627      98471.252      2004.6379      810.44454      589.24774      7914.3222      4914.4278      12828.75       172228.21      44.159563      44.159563      88.319125          16000 
    144000   3781.5369      100059.19      840.88082      101057.13      98949.34       100171.11      619.1885      -1299.0368     -1834.4055      7820.3433      4989.2986      12809.642      172006.95      44.140644      44.140644      88.281288          16000 
    145000   3808.5347      101556.6       847.1779       101874.35      101451.11      101344.36     -937.48757      2289.8023      145.76041      7876.1757      4830.0924      12706.268      171572.13      44.103418      44.103418      88.206836          16000 
    146000   3835.2365      98413.294      853.47679      98608.415      99061.789      97569.677     -1499.6502      464.00512      828.95413      7931.3958      4894.2074      12825.603      172018.7       44.141649      44.141649      88.283298          16000 
    147000   3823.1394      96145.077      859.78236      98053.65       94937.778      95443.805      109.83253      781.05546      119.54793      7906.3787      4991.2871      12897.666      172220.59      44.158912      44.158912      88.317824          16000 
    148000   3788.7723      100122.22      866.07753      100656.32      99377.284      100333.07      1039.577      -1457.6677     -351.89254      7835.3065      4874.3299      12709.636      171782.03      44.121396      44.121396      88.242793          16000 
    149000   3837.5411      106858.8       872.37526      107136.64      106317.41      107122.35     -558.34832     -1213.0494     -738.79642      7936.162       4919.3247      12855.487      171349.8       44.08436       44.08436       88.168719          16000 
    150000   3810.6313      104404.66      878.67787      106230.08      103800.12      103183.79     -2501.6758     -708.93328      98.995423      7880.5115      5029.0248      12909.536      171614.39      44.107039      44.107039      88.214077          16000 
    151000   3804.5428      100947.04      884.974        100102.8       101615.48      101122.83     -102.63288      222.35294     -756.85794      7867.9203      4954.7722      12822.693      171773.98      44.120707      44.120707      88.241414          16000 
    152000   3750.9603      102992.51      891.27718      103502.4       103665.9       101809.24      131.74561      717.06667      649.84119      7757.1098      4908.8474      12665.957      171687.85      44.113332      44.113332      88.226663          16000 
    153000   3813.7438      99560.137      897.57613      98974.716      99423.323      100282.37     -542.24044     -1098.1543      1114.3473      7886.9483      4889.5274      12776.476      171954.18      44.13613       44.13613       88.27226           16000 
    154000   3740.4324      95380.5        903.87435      95054.398      95220.467      95866.634      1081.6889     -1422.4633      1465.6455      7735.3378      4956.1765      12691.514      172267.25      44.162899      44.162899      88.325798          16000 
    155000   3792.3862      94105.789      910.17229      94553.408      93392.941      94371.019      286.32585      779.29214      1916.147       7842.7801      5070.9899      12913.77       172429.12      44.176727      44.176727      88.353454          16000 
    156000   3811.1633      100380.36      916.47071      102605.69      99754.341      98781.035     -627.28205     -255.25955     -459.63372      7881.6116      4877.66        12759.272      171805.63      44.123416      44.123416      88.246833          16000 
    157000   3866.0688      98632.994      922.76982      99286.802      100029.28      96582.903     -1083.9239      2392.6915      846.704        7995.1581      4994.3171      12989.475      172090.85      44.14782       44.14782       88.29564           16000 
    158000   3831.2878      102039.96      929.06888      102284.14      101097.76      102737.98      817.41631      671.77201     -2948.6297      7923.2299      4895.9507      12819.181      171716.32      44.115769      44.115769      88.231539          16000 
    159000   3800.2843      105326.01      935.37082      104137         105787.44      106053.6      -1112.2648     -1903.7638      1097.2975      7859.1135      4830.8397      12689.953      171341.28      44.083628      44.083628      88.167257          16000 
    160000   3792.9435      101461.01      941.66903      101396.71      100645.61      102340.73     -2748.6323     -3168.9313     -468.1005       7843.9325      4976.3475      12820.28       171822.94      44.124898      44.124898      88.249796          16000 
    161000   3823.4023      99756.9        947.96888      98891.559      100121.24      100257.9       411.81175     -312.0529       1156.296       7906.9225      4953.8983      12860.821      172020.92      44.141839      44.141839      88.283678          16000 
    162000   3788.89        96580.412      954.26685      97960.51       95914.057      95866.669     -187.45565     -353.00929     -3544.4614      7835.5497      4872.8647      12708.414      172121.16      44.150412      44.150412      88.300823          16000 
    163000   3756.9422      95526.832      960.56572      95920.427      94188.171      96471.898      605.45277      233.9411      -1052.0107      7769.4807      4905.182       12674.663      172126.18      44.150841      44.150841      88.301681          16000 
    164000   3779.4049      100176.73      966.86588      99574.183      101277.55      99678.456      2422.3866      1818.2108     -1502.831       7815.9342      4911.3777      12727.312      171836.74      44.126079      44.126079      88.252159          16000 
    165000   3839.8403      98285.733      973.1662       98150.707      98199.64       98506.853      1494.3834     -11.679         871.84404      7940.9166      4852.5846      12793.501      171957.06      44.136376      44.136376      88.272753          16000 
    166000   3788.9008      97050.368      979.46716      95735.93       96190.104      99225.069      2810.0991      2222.9394     -582.86194      7835.572       4965.8258      12801.398      172082.93      44.147142      44.147142      88.294285          16000 
    167000   3783.5791      104886.04      985.76967      104941.55      103889.91      105826.66     -2050.0271     -328.23129      455.88932      7824.5666      4942.5572      12767.124      171451.96      44.093119      44.093119      88.186237          16000 
    168000   3806.7929      99375.623      992.07215      99594.505      98393.389      100138.98      1048.7621      1889.7533     -3029.767       7872.5735      4939.9105      12812.484      171869         44.12884       44.12884       88.257681          16000 
    169000   3808.1264      100807.72      998.37148      100436.5       101101.29      100885.38      1289.0102      1299.8468      539.21387      7875.3312      5028.167       12903.498      171947.98      44.135599      44.135599      88.271198          16000 
    170000   3822.0034      101732.75      1004.672       102034.63      102240.97      100922.66      2785.7629     -608.86263     -871.92986      7904.0294      4857.9515      12761.981      171693.27      44.113796      44.113796      88.227592          16000 
    171000   3822.5708      97888.276      1010.9708      96755.284      98601.274      98308.271      276.61844      151.31446      417.01272      7905.2027      4857.8956      12763.098      171938.49      44.134787      44.134787      88.269574          16000 
    172000   3790.7986      97749.099      1017.2696      98112.675      96555.515      98579.108      1181.9106     -2003.8317     -265.11718      7839.4969      4872.0411      12711.538      171843.38      44.126647      44.126647      88.253295          16000 
    173000   3794.8321      96951.755      1023.5689      96636.282      96988.004      97230.977      367.30975     -1473.579       1154.0761      7847.8382      4855.0039      12702.842      172039.25      44.143407      44.143407      88.286813          16000 
    174000   3806.7239      100413.66      1029.8694      101043.07      99637.113      100560.79      909.60937     -1989.3414     -173.10833      7872.4309      5065.2993      12937.73       171967.45      44.137265      44.137265      88.27453           16000 
    175000   3776.7716      101753.28      1036.1705      101380.77      102793.76      101085.32      905.27653      1433.1268      796.02445      7810.4886      4979.3035      12789.792      171716.7       44.115802      44.115802      88.231604          16000 
    176000   3847.2911      103031.34      1042.4703      102637.67      103226.05      103230.29     -11.122759      343.86906      492.39353      7956.3251      4937.2018      12893.527      171633.56      44.108681      44.108681      88.217361          16000 
    177000   3802.8605      104848.61      1048.7709      105574.21      103400.4       105571.2      -938.60904      963.60844      925.9197       7864.4412      5016.7844      12881.226      171450.89      44.093027      44.093027      88.186054          16000 
    178000   3771.5313      101365.71      1055.0731      103453.83      100062.17      100581.13     -711.89302      819.02069      1483.8892      7799.6515      4957.8927      12757.544      171664.93      44.111368      44.111368      88.222736          16000 
    179000   3840.7754      98206.958      1061.3725      97942.688      98131.478      98546.708      587.48545      1447.4818      1928.1365      7942.8504      4887.5869      12830.437      172112.7       44.149688      44.149688      88.299376          16000 
    180000   3745.882       101726.68      1067.6727      101403.31      101796.52      101980.21      656.93582     -1048.8469     -1349.6778      7746.6079      4891.9861      12638.594      171604.72      44.106211      44.106211      88.212421          16000 
    181000   3785.5492      101535.25      1073.9732      101379.11      100301.93      102924.72      945.82876     -957.27625     -915.22016      7828.6409      4952.1452      12780.786      171810.65      44.123846      44.123846      88.247692          16000 
    182000   3745.667       97306.02       1080.2693      97265.699      97554.322      97098.038     -224.8638       714.95737     -804.75236      7746.1632      4869.3375      12615.501      171929.56      44.134023      44.134023      88.268046          16000 
    183000   3795.6714      97584.286      1086.5701      97784.07       96687.62       98281.169     -2400.0678     -2630.3271     -1740.1194      7849.5739      4964.9354      12814.509      172024.99      44.142187      44.142187      88.284374          16000 
    184000   3806.4837      103710.89      1092.8697      103890.33      103189.93      104052.42     -29.975654     -390.93415     -1427.9054      7871.9341      4847.5875      12719.522      171525.58      44.099429      44.099429      88.198859          16000 
    185000   3769.8402      102193.08      1099.1717      101746.66      101699.89      103132.7      -190.91215     -3227.1985      98.259769      7796.1542      4901.9956      12698.15       171637.98      44.10906       44.10906       88.21812           16000 
    186000   3787.9358      101329.89      1105.4708      102379.28      100117.24      101493.14      1461.8661     -1225.3167      365.53859      7833.5764      4948.1665      12781.743      171730.61      44.116993      44.116993      88.233987          16000 
    187000   3794.7872      98999.53       1111.7689      98151.328      98924.962      99922.301      503.53426      1513.8333     -32.25318       7847.7454      4871.2276      12718.973      171918.62      44.133087      44.133087      88.266175          16000 
    188000   3819.9776      95514.007      1118.0694      95532.741      96512.215      94497.065      1909.3131      1943.6952      1014.6118      7899.8399      4908.0715      12807.911      172139.15      44.15195       44.15195       88.303899          16000 
    189000   3754.2565      99812.816      1124.3683      100094.08      98296.021      101048.35      365.33071      1352.9584      711.80813      7763.9265      4940.0689      12703.995      171926.3       44.133744      44.133744      88.267488          16000 
    190000   3812.9988      96390.874      1130.6697      96526.932      97049.297      95596.394     -833.69015      896.36539      530.67855      7885.4075      4910.213       12795.621      172260.69      44.162339      44.162339      88.324678          16000 
    191000   3790.5204      90620.28       1136.9705      89121.603      92667.362      90071.875     -345.48251     -538.23604      1747.7714      7838.9215      4816.0114      12654.933      172568.31      44.188611      44.188611      88.377222          16000 
    192000   3773.4849      97639.763      1143.2718      98428.779      96924.51       97566.001     -3469.8086      2574.5136     -2214.723       7803.6915      4902.7091      12706.401      171996.33      44.139736      44.139736      88.279472          16000 
    193000   3800.2614      99360.209      1149.571       100876.56      98101.636      99102.43      -833.04882      107.59947     -930.20983      7859.0662      4874.1097      12733.176      171900.55      44.13154       44.13154       88.263081          16000 
    194000   3811.6501      101230.73      1155.8714      101646.36      100367.48      101678.37      1456.2162     -622.3692       2727.4476      7882.6185      4954.1629      12836.781      171825.05      44.125079      44.125079      88.250158          16000 
    195000   3805.8578      103688.49      1162.1722      103489.16      102968.66      104607.64      703.02098      421.30784      1708.7133      7870.6398      4923.6809      12794.321      171596.72      44.105525      44.105525      88.21105           16000 
    196000   3785.7362      99871.636      1168.4724      101129.19      98996.982      99488.735     -2500.4405     -528.9928      -1367.9634      7829.0275      4908.7283      12737.756      171656.86      44.110677      44.110677      88.221354          16000 
    197000   3766.039       102535.16      1174.7725      102096.23      101553.88      103955.37     -903.20521     -1286.9655     -2138.3767      7788.2932      5102.0436      12890.337      171689.95      44.113511      44.113511      88.227022          16000 
    198000   3769.3277      104360.26      1181.0758      104753.76      104675.62      103651.41      1472.9427     -3285.3845     -338.6836       7795.0943      4994.7493      12789.844      171499.77      44.097217      44.097217      88.194435          16000 
    199000   3750.1071      100151.75      1187.3751      100272.44      100186.52      99996.296      795.16355      911.71975      439.98885      7755.3454      4904.4785      12659.824      171780.74      44.121286      44.121286      88.242572          16000 
    200000   3771.8019      98913.334      1193.6883      99597.302      97924.42       99218.28      -478.51563      1838.8743     -2212.3016      7800.211       4928.9235      12729.134      171920.95      44.133287      44.133287      88.266574          16000 
    201000   3816.901       95802.983      1199.9875      94721.875      96757.488      95929.587      656.50745      854.37574      1135.5427      7893.4775      5014.4335      12907.911      172334.46      44.168641      44.168641      88.337283          16000 
    202000   3817.5085      99115.776      1206.2871      100165.72      98077.215      99104.396      885.51857      1543.2954     -612.50303      7894.7339      4848.3251      12743.059      171798.31      44.12279       44.12279       88.245579          16000 
    203000   3825.3449      97405.267      1212.5838      97496.103      98917.037      95802.661     -389.9531      -1161.303       1321.4314      7910.9397      4963.0803      12874.02       172022.51      44.141975      44.141975      88.283951          16000 
    204000   3815.1251      102037.85      1218.8808      100083.66      103558.42      102471.46      453.54666      1987.7526      160.02728      7889.8048      4914.6938      12804.499      171640.93      44.109313      44.109313      88.218625          16000 
    205000   3838.2591      103749.72      1225.1573      103524.97      103690.76      104033.42     -2158.6322      594.282        527.49305      7937.6467      4936.773       12874.42       171427.83      44.09105       44.09105       88.1821            16000 
    206000   3802.8077      104852.01      1231.4528      106943.57      102723.34      104889.13      1143.9709      758.42719      22.959492      7864.3321      4979.2222      12843.554      171576.9       44.103826      44.103826      88.207653          16000 
    207000   3801.802       102559.92      1237.7543      103543.45      102475.59      101660.72     -605.33033      2618.1689     -1083.4201      7862.2522      4899.1582      12761.41       171517.98      44.098778      44.098778      88.197556          16000 
    208000   3789.0624      97568.752      1244.0553      98181.62       95967.004      98557.631     -216.93268      570.31103      490.04845      7835.9064      4877.7737      12713.68       172079.64      44.146861      44.146861      88.293723          16000 
    209000   3790.6234      97139.833      1250.3551      97668.573      96111.535      97639.392      1847.1793     -688.7937       30.408299      7839.1345      4931.738       12770.873      172035.58      44.143093      44.143093      88.286186          16000 
    210000   3813.3206      99856.89       1256.6527      98810.907      99659.712      101100.05      2365.2398     -1213.741      -2143.7712      7886.0732      4896.8691      12782.942      171822.06      44.124823      44.124823      88.249645          16000 
    211000   3803.1158      100802.39      1262.9532      100167.81      100300.11      101939.25     -258.5259       1306.2955     -616.94653      7864.9693      4919.4397      12784.409      171696.38      44.114062      44.114062      88.228124          16000 
    212000   3853.2197      102603.14      1269.2522      103502.02      100629.6       103677.79     -495.94251     -228.30625     -1091.1108      7968.5857      4933.7785      12902.364      171609.41      44.106612      44.106612      88.213224          16000 
    213000   3827.2252      100068.99      1275.5533      100251.22      99918.425      100037.34      419.89809      2405.7901     -1368.5876      7914.8283      4912.1439      12826.972      171846         44.126872      44.126872      88.253744          16000 
    214000   3809.7301      97686.777      1281.8544      98902.792      98555.061      95602.477      199.16707      762.87598      2322.4556      7878.6478      4830.1051      12708.753      171964.99      44.137054      44.137054      88.274109          16000 
    215000   3803.3117      96006.049      1288.154       96550.605      94583.09       96884.453     -374.97955      976.19064      1258.3556      7865.3744      4850.1387      12715.513      172183.93      44.155778      44.155778      88.311555          16000 
    216000   3811.2845      95173.983      1294.4553      95752.413      94432.337      95337.199     -2697.4477     -2028.259      -2318.3251      7881.8623      4810.1512      12692.014      172226.69      44.159433      44.159433      88.318865          16000 
    217000   3791.406       96105.962      1300.7572      96816.98       95726.007      95774.898      1902.9154      1323.9807     -1518.8816      7840.7529      4893.9289      12734.682      172225.26      44.159311      44.159311      88.318622          16000 
    218000   3798.6151      101002.42      1307.0577      100905.97      102720.77      99380.531     -1022.5839     -34.137786      1358.0912      7855.6616      4910.2662      12765.928      171718.77      44.115979      44.115979      88.231958          16000 
    219000   3803.0102      99164.945      1313.3591      98963.992      98880.687      99650.154     -144.68584      530.18176      1209.4396      7864.7509      4802.605       12667.356      171749.42      44.118604      44.118604      88.237208          16000 
    220000   3767.279       100321.8       1319.6606      100796.2       101392.6       98776.594      697.66627     -1811.5874     -909.41364      7790.8576      5018.1831      12809.041      171858.94      44.12798       44.12798       88.255959          16000 
    221000   3799.2088      104224.94      1325.9606      103189.05      105820.92      103664.84     -844.69435      617.17425      1644.4418      7856.8893      4972.7195      12829.609      171482.48      44.095735      44.095735      88.191469          16000 
    222000   3843.5562      103088.49      1332.2627      102164.56      104936.83      102164.08      2992.605       1605.8431     -28.848141      7948.6013      4901.6375      12850.239      171689.02      44.113431      44.113431      88.226863          16000 
    223000   3791.917       102999.4       1338.566       103662.81      102469.38      102866.01      819.71551      966.58244      171.53874      7841.8097      4982.9322      12824.742      171735.01      44.11737       44.11737       88.234739          16000 
    224000   3800.3664      97581.233      1344.8649      98575.776      96361.231      97806.693      994.04632     -1445.3541      1013.4201      7859.2833      4915.1648      12774.448      172101.59      44.148738      44.148738      88.297476          16000 
    225000   3779.8759      98140.524      1351.1598      97951.024      97568.074      98902.474      117.04875      770.0562       369.57245      7816.9083      4896.3086      12713.217      171972.46      44.137694      44.137694      88.275387          16000 
    226000   3756.5906      98901.451      1357.4597      97678.407      100204.31      98821.638      1943.608      -39.176375     -1280.9132      7768.7536      4937.0117      12705.765      171927.41      44.133839      44.133839      88.267678          16000 
    227000   3818.6756      97205.183      1363.7615      97825.571      96012.739      97777.239      732.27618     -627.79347     -1869.1176      7897.1474      4828.339       12725.486      171930.44      44.134099      44.134099      88.268198          16000 
    228000   3731.7931      99234.649      1370.0629      98615.66       100022.38      99065.912     -2649.5265     -239.73425     -682.86549      7717.4714      5034.4794      12751.951      171933.36      44.134348      44.134348      88.268697          16000 
    229000   3796.2562      96297.932      1376.3652      96026.786      95285.519      97581.49      -1720.2745      2683.0855      1507.7368      7850.7834      4932.4303      12783.214      172195.33      44.156752      44.156752      88.313504          16000 
    230000   3791.8306      102118.8       1382.6668      102413.14      101105.65      102837.62     -1793.2628     -71.024684      1119.7379      7841.631       4971.3695      12813.001      171733.84      44.11727       44.11727       88.23454           16000 
    231000   3821.3887      103335.86      1388.9662      103870.14      103288.05      102849.39      2370.1754     -155.26847      1636.3552      7902.7582      4934.0058      12836.764      171664.86      44.111362      44.111362      88.222725          16000 
    232000   3814.1525      104686.32      1395.2668      104899.48      103926.47      105233         199.09825     -10.137127      937.81831      7887.7935      5010.0158      12897.809      171634.11      44.108728      44.108728      88.217457          16000 
    233000   3772.4616      101895.27      1401.569       100992.28      102892.87      101800.64      1422.2082      850.98709      22.442894      7801.5754      4995.0435      12796.619      171720.85      44.116157      44.116157      88.232314          16000 
    234000   3806.1885      97581.012      1407.8721      98961.938      95703.25       98077.848      857.91162     -3.0189592      1335.4134      7871.3236      4860.8522      12732.176      172108.37      44.149318      44.149318      88.298636          16000 
    235000   3771.8621      95598.039      1414.1751      96789.602      93989.533      96014.981     -2290.5737     -640.49172      1573.5498      7800.3356      4833.893       12634.229      172123.19      44.150585      44.150585      88.30117           16000 
    236000   3770.4845      99846.156      1420.4775      97934.134      100628.84      100975.5       456.50121     -2786.9769      1207.0454      7797.4866      4945.8111      12743.298      171947.7       44.135575      44.135575      88.271151          16000 
    237000   3833.3642      100687.26      1426.7786      99380.661      101846.05      100835.08     -474.41287     -1806.5155      2301.0267      7927.5238      4929.9563      12857.48       171922.99      44.133461      44.133461      88.266922          16000 
    238000   3810.2571      101508.02      1433.0809      101769.44      100478.34      102276.29     -1364.0701     -2792.5443      549.85567      7879.7375      4984.6361      12864.374      171687.99      44.113343      44.113343      88.226687          16000 
    239000   3838.0117      101424.41      1439.3839      101243.19      101272.8       101757.23     -868.97235      147.85727     -2452.669       7937.1351      4927.7483      12864.883      171680.58      44.112709      44.112709      88.225418          16000 
    240000   3827.1084      101899.85      1445.6838      103392.79      100736.46      101570.31      1895.6238      1225.1506      1480.6172      7914.5867      4889.0129      12803.6        171597.7       44.105609      44.105609      88.211217          16000 
    241000   3789.0108      100863.24      1451.9879      102944.27      100568.02      99077.448     -1574.8218      265.46713     -1700.1292      7835.7996      4864.8026      12700.602      171721.32      44.116198      44.116198      88.232395          16000 
    242000   3801.5003      99413.919      1458.2917      98767.299      99362.313      100112.15     -2038.4613     -812.1296      -3175.8477      7861.6283      4919.1824      12780.811      171905.8       44.13199       44.13199       88.263981          16000 
    243000   3810.0358      98967.258      1464.5925      100568.76      98037.112      98295.898      261.8377      -1054.2356     -1647.8721      7879.2801      4912.5215      12791.802      172008.09      44.140742      44.140742      88.281484          16000 
    244000   3802.6996      102057.13      1470.8948      101438.85      101844.33      102888.21      1022.4824     -3505.2953     -1800.5191      7864.1084      4913.5003      12777.609      171701.34      44.114487      44.114487      88.228974          16000 
    245000   3789.6781      99701.755      1477.1953      99501.183      100611.48      98992.605     -578.65565     -421.67416     -1600.7928      7837.1797      5052.1593      12889.339      171956.64      44.13634       44.13634       88.272681          16000 
    246000   3811.1971      99935.851      1483.4951      100762.93      99142.379      99902.244      2490.3937      233.1047       143.68572      7881.6817      4948.0768      12829.758      171847.83      44.127029      44.127029      88.254058          16000 
    247000   3808.2434      98648.845      1489.7953      100481.96      96722.64       98741.929     -1828.3456     -991.40726     -1440.5421      7875.5732      4941.5488      12817.122      171912.44      44.132558      44.132558      88.265116          16000 
    248000   3789.0084      95993.364      1496.0994      97547.089      95157.119      95275.883     -589.23813      107.01611     -255.62456      7835.7946      4840.1576      12675.952      172127.6       44.150962      44.150962      88.301924          16000 
    249000   3815.6843      98398.645      1502.402       98180.597      98656.536      98358.803     -2282.9115      2335.3592      2155.714       7890.9612      4803.8072      12694.768      171892.91      44.130887      44.130887      88.261774          16000 
    250000   3789.306       99070.387      1508.7009      97940.259      100649.28      98621.623      603.86409      256.2288       651.38501      7836.4102      4978.0751      12814.485      171976.06      44.138001      44.138001      88.276003          16000 
    251000   3814.3427      98582.009      1515.0023      98032.017      98851.069      98862.942      7.6055576      647.76571      3035.8391      7888.1869      4908.5749      12796.762      171999.56      44.140012      44.140012      88.280025          16000 
    252000   3777.369       95027.487      1521.303       94915.092      95692.668      94474.7       -1507.4245     -2433.2659     -492.68029      7811.724       4852.7398      12664.464      172093.46      44.148043      44.148043      88.296086          16000 
    253000   3815.8788      96116.032      1527.6068      95992.907      95974.047      96381.14      -1655.9326     -206.2009       543.07902      7891.3635      4867.8653      12759.229      172221.64      44.159001      44.159001      88.318002          16000 
    254000   3818.3984      101683.83      1533.9094      101425.83      102466.15      101159.52     -1417.0954      1355.6987     -575.31901      7896.574       4968.9903      12865.564      171711.89      44.11539       44.11539       88.23078           16000 
    255000   3808.8773      105464.35      1540.211       106226.77      103949.21      106217.07      2679.698       3562.7632     -100.3836       7876.8842      4961.9262      12838.81       171462.5       44.094022      44.094022      88.188044          16000 
    256000   3852.3967      103381.32      1546.5107      102737.49      103410.93      103995.54      141.04238      2509.5567     -2176.564       7966.8837      5004.1084      12970.992      171681.31      44.112771      44.112771      88.225542          16000 
    257000   3799.6785      101647.49      1552.812       100563.52      102446.68      101932.27     -2064.9143     -3497.1134     -15.542003      7857.8607      4870.3042      12728.165      171612.96      44.106916      44.106916      88.213832          16000 
    258000   3802.9802      97750.603      1559.1145      98528.124      98064.171      96659.513     -2542.955       469.02184     -607.41255      7864.6887      5028.2527      12892.941      172170.6       44.154638      44.154638      88.309276          16000 
    259000   3789.0698      99724.576      1565.4142      100213.82      100317.34      98642.562     -882.00072     -758.66136     -927.65608      7835.9217      4924.9685      12760.89       171884.29      44.130149      44.130149      88.260298          16000 
    260000   3763.0862      99078.682      1571.7141      98331.888      98239.6        100664.56     -2404.4633     -228.89122     -870.99307      7782.1868      4930.8968      12713.084      171948.18      44.135616      44.135616      88.271232          16000 
    261000   3802.8773      97516.77       1578.0149      98125.162      98229.701      96195.447      2061.1805     -1063.0099      1693.4625      7864.476       4976.569       12841.045      172052.67      44.144555      44.144555      88.28911           16000 
    262000   3748.3544      101329.8       1584.3184      102205.95      101927.3       99856.143      1040.1829      659.78661      544.54035      7751.7208      4937.946       12689.667      171701.28      44.114482      44.114482      88.228964          16000 
    263000   3800.466       101751.34      1590.6205      101630.25      101886.56      101737.22      911.43542     -288.33099      1082.8608      7859.4893      4951.5069      12810.996      171739.41      44.117747      44.117747      88.235494          16000 
    264000   3815.0694      98537.226      1596.925       100380.92      96323.372      98907.381     -1634.8473      2058.3965     -606.41219      7889.6897      4943.1202      12832.81       171987.44      44.138975      44.138975      88.27795           16000 
    265000   3752.7408      98931.286      1603.2281      99716.535      97820.925      99256.399      1449.0647     -1799.3277      882.50986      7760.7921      4849.5709      12610.363      171817.74      44.124453      44.124453      88.248905          16000 
    266000   3790.5119      101088.38      1609.5293      100768.03      102843.81      99653.302     -1006.3831     -1113.6253     -402.7293       7838.9039      4898.7978      12737.702      171779.27      44.12116       44.12116       88.242319          16000 
    267000   3756.1935      101699.49      1615.8315      100103.91      102670.5       102324.06      500.8972      -718.54218     -2519.4439      7767.9323      5007.9791      12775.911      171771.97      44.120535      44.120535      88.24107           16000 
    268000   3826.1101      96618.428      1622.1327      96367.897      96842.349      96645.039      61.697469      1334.21        1445.8347      7912.5222      4968.4161      12880.938      172202.44      44.15736       44.15736       88.314721          16000 
    269000   3765.0838      98534.13       1628.4333      98642.973      98262.84       98696.576     -440.6749       152.91447     -887.25393      7786.3178      4923.1327      12709.451      171906.12      44.132017      44.132017      88.264034          16000 
    270000   3818.5064      95771.318      1634.736       95682.191      95150.135      96481.628     -240.06627      92.415971     -421.53784      7896.7975      4905.5534      12802.351      172143.22      44.152298      44.152298      88.304596          16000 
    271000   3772.7458      97411.769      1641.0383      98167.482      98633.046      95434.78      -2697.7658     -2599.0001      1734.4995      7802.163       4917.553       12719.716      172015.76      44.141398      44.141398      88.282795          16000 
    272000   3807.6901      99714.95       1647.3402      98746.476      99900.883      100497.49     -1529.1656     -2118.1774      2827.6907      7874.4289      4932.1446      12806.573      171811.37      44.123907      44.123907      88.247815          16000 
    273000   3796.4237      105925.36      1653.6411      105344.27      106030.33      106401.47     -837.53694     -568.55956      1187.6118      7851.1296      4861.1365      12712.266      171263.76      44.07698       44.07698       88.15396           16000 
    274000   3808.3123      97670.267      1659.9419      97003.41       97237.15       98770.241     -3716.7412      2564.1826      1328.8698      7875.7157      4934.7406      12810.456      171989.38      44.139141      44.139141      88.278283          16000 
    275000   3774.1141      98756.667      1666.242       99330.53       97721.489      99217.984      699.82029     -1114.6733      1143.9853      7804.9928      4950.2789      12755.272      171815.05      44.124223      44.124223      88.248445          16000 
    276000   3803.836       101192.22      1672.5423      100431.31      101934.58      101210.78     -2799.6051     -852.65538      532.34792      7866.4586      4870.1302      12736.589      171743.99      44.118139      44.118139      88.236278          16000 
    277000   3745.6425      96593.212      1678.8378      95699.095      97446.791      96633.749     -638.451       -876.82107      1163.4092      7746.1126      4929.5497      12675.662      172119.52      44.150272      44.150272      88.300543          16000 
    278000   3808.4729      98280.843      1685.128       98835.185      98074.51       97932.834     -384.53083      690.35025      128.00186      7876.0478      4929.1699      12805.218      172053.54      44.144629      44.144629      88.289258          16000 
    279000   3782.9013      101122.86      1691.4068      100802.25      100543.69      102022.64     -2350.2179      1544.5998     -558.03992      7823.1649      4982.9709      12806.136      171811.86      44.12395       44.12395       88.2479            16000 
    280000   3815.3294      98308.139      1697.6821      98202.655      97362.59       99359.173      629.51173      3542.0692     -1693.7793      7890.2273      4779.779       12670.006      171850.5       44.127258      44.127258      88.254515          16000 
    281000   3788.6057      98300.611      1703.9756      98067.516      97811.522      99022.794     -160.69145     -443.93209      1254.2237      7834.9618      4929.5345      12764.496      171922.4       44.133411      44.133411      88.266822          16000 
    282000   3824.8698      96907.991      1710.2728      98106.514      95498.131      97119.327      512.03046     -857.08217     -1103.268       7909.9573      4997.9083      12907.866      172147.29      44.152645      44.152645      88.305291          16000 
    283000   3832.5803      101788.8       1716.5698      101932.53      101555.66      101878.21     -709.93013     -243.22671     -1857.5001      7925.9027      4809.9921      12735.895      171630.92      44.108455      44.108455      88.21691           16000 
    284000   3769.8044      102725.08      1722.8676      102558.87      103096.18      102520.2       1031.3594      133.91785      4008.3296      7796.0801      4918.7799      12714.86       171527.36      44.099581      44.099581      88.199163          16000 
    285000   3823.5583      95963.043      1729.1671      96854.849      95716.005      95318.274      1878.825       1733.6996     -2403.2946      7907.2449      4980.4469      12887.692      172255.77      44.161918      44.161918      88.323836          16000 
[...]
   3930000   3366.6328      101363.15      6101.1012      101233.09      101380.99      101475.36      2851.569       743.19358     -274.7091       6962.3079      12172.415      19134.723      193406.04      45.502285      45.502285      93.412204          16000 
   3931000   3379.2972      100970.54      6107.7079      100789.79      100130.5       101991.34      534.83076     -992.61487     -435.94333      6988.4984      12155.255      19143.753      193258.93      45.490745      45.490745      93.388514          16000 
   3932000   3384.9518      98979.886      6114.3135      98868.663      99169.9        98901.096      276.20494      2329.5522     -265.38857      7000.1922      12115.383      19115.575      193699.72      45.525304      45.525304      93.459461          16000 
   3933000   3375.7092      100832.97      6120.9207      99401.474      101433.58      101663.85     -1902.5684      555.71442      1243.6006      6981.0783      12146.551      19127.63       193491.66      45.508998      45.508998      93.425986          16000 
   3934000   3386.5534      100630.68      6127.5256      103242.32      100740.11      97909.618     -3858.3421      110.83837      650.68341      7003.5043      12103.489      19106.993      193809.21      45.533881      45.533881      93.477068          16000 
   3935000   3414.6618      99765.368      6134.1285      99880.679      98986.789      100428.64      633.00969      249.8336       1054.9943      7061.6335      12076.962      19138.596      193299.34      45.493916      45.493916      93.395023          16000 
   3936000   3361.4365      99703.605      6140.7331      97671.056      100872.86      100566.9      -464.67857     -841.41158      807.91798      6951.5618      12170.032      19121.594      193569.35      45.515089      45.515089      93.43849           16000 
   3937000   3377.8773      97623.27       6147.3275      97946.371      98147.679      96775.76       2056.3136      2016.8795      1981.0771      6985.562       12116.124      19101.686      193866.09      45.538335      45.538335      93.486212          16000 
   3938000   3366.5626      103293.32      6153.9343      99851.284      105135.26      104893.42      2882.0849      2958.9083      1037.6499      6962.1628      12189.976      19152.139      193049.71      45.474324      45.474324      93.354803          16000 
   3939000   3368.4051      97988.872      6160.543       98177.483      98281.378      97507.754      1219.5385      1942.1859      0.47008729     6965.973       12124.19       19090.163      194032.3       45.551345      45.551345      93.512921          16000 
   3940000   3359.4046      100139.1       6167.1483      97845.209      102509.43      100062.66     -869.65836      2691.9622      1290.5988      6947.3598      12166.784      19114.144      193636.83      45.520377      45.520377      93.449346          16000 
   3941000   3365.1099      101267.81      6173.7507      101903.97      101149.98      100749.48     -2174.8306      2334.9179      2316.8839      6959.1585      12158.992      19118.15       193567.58      45.51495       45.51495       93.438204          16000 
   3942000   3383.3389      100095.33      6180.3599      99303.376      98872.012      102110.61     -341.0053      -2708.7586      2394.4402      6996.8567      12083.276      19080.133      194174.22      45.562448      45.562448      93.535714          16000 
   3943000   3366.0103      102547.21      6186.9651      101155.8       102735.33      103750.51      244.85117      3197.0514     -1120.3999      6961.0205      12176.965      19137.986      193256.33      45.490541      45.490541      93.388095          16000 
   3944000   3361.0931      103453.11      6193.569       103700.37      102332.37      104326.59      751.50956     -14.689882     -25.94925       6950.8516      12180.714      19131.565      193358.31      45.498542      45.498542      93.40452           16000 
   3945000   3380.8503      99538.131      6200.1716      99067.051      97989.491      101557.85      1859.7998      1523.7713     -743.11561      6991.7103      12121.187      19112.897      193656.9       45.521949      45.521949      93.452574          16000 
   3946000   3366.802       101271.55      6206.7745      97884.562      103182.22      102747.86     -874.22454      2451.6678     -59.475023      6962.6578      12141.847      19104.505      193790.51      45.532416      45.532416      93.474062          16000 
   3947000   3385.1886      101679.45      6213.3739      102229.86      101968.94      100839.54     -1003.0137      483.53119      1254.775       7000.6818      12131.884      19132.566      193333.2       45.496572      45.496572      93.400476          16000 
   3948000   3372.8746      99871.068      6219.973       97337.073      101688.07      100588.06      1190.5392      948.18419     -1498.8939      6975.2163      12128.48       19103.697      193766.94      45.53057       45.53057       93.470272          16000 
   3949000   3420.7092      101098.91      6226.5757      99390.443      99872.724      104033.56      1418.4931     -820.77252     -572.41281      7074.1398      12046.154      19120.294      193476.77      45.507831      45.507831      93.42359           16000 
   3950000   3423.9895      104661.53      6233.1861      105841.78      103053.76      105089.04     -1155.5956      728.56724      1314.7895      7080.9235      12089.63       19170.553      192679.94      45.445271      45.445271      93.29516           16000 
   3951000   3388.0042      98556.231      6239.7913      100004.95      95468.401      100195.34      781.37249     -1558.7819     -113.88274      7006.5047      12070.783      19077.288      194172.49      45.562313      45.562313      93.535437          16000 
   3952000   3392.9057      96885.011      6248.7166      95086.336      97945.795      97622.904      1784.48        1889.7993     -2097.6977      7016.6412      12075.119      19091.76       193920.56      45.542599      45.542599      93.494966          16000 
   3953000   3370.7517      98462.88       6255.3444      97308.979      97048.628      101031.03     -1462.2268      2079.0361      17.822282      6970.826       12112.817      19083.643      194027.54      45.550972      45.550972      93.512156          16000 
   3954000   3387.7996      101976.15      6262.9978      100601.1       107039.66      98287.691      2131.5302     -203.40382      1726.6985      7006.0815      12141.899      19147.981      192986.62      45.469369      45.469369      93.344631          16000 
   3955000   3385.6332      100154.63      6269.6067      97478.484      100160.45      102824.96      191.65777     -1966.1769      75.421353      7001.6015      12124.208      19125.809      193323.96      45.495847      45.495847      93.398988          16000 
   3956000   3367.1598      99074.444      6276.2151      97463.314      98253.186      101506.83     -149.13213      1527.7825      1092.7956      6963.3978      12148.614      19112.012      193537.06      45.512557      45.512557      93.433293          16000 
   3957000   3358.3217      102281.04      6282.8259      102652.37      103471.16      100719.58      121.95726      1560.4848     -1597.2408      6945.1203      12175.993      19121.113      193385.48      45.500672      45.500672      93.408894          16000 
   3958000   3389.6987      95414.421      6289.4472      91100.817      95318.133      99824.314      251.29837      376.83304     -850.34315      7010.0091      12103.374      19113.383      193498.38      45.509525      45.509525      93.427068          16000 
   3959000   3410.0477      104305.09      6300.1987      103088.24      104669.98      105157.04     -2103.1032     -285.50359     -374.6283       7052.0913      12093.869      19145.96       192962.22      45.467452      45.467452      93.340697          16000 
   3960000   3355.9351      104570.07      6306.8302      104536.19      103546.44      105627.57     -776.86109      3192.2004     -1196.3287      6940.1848      12178.285      19118.469      193368.08      45.499308      45.499308      93.406093          16000 
   3961000   3386.8174      99432.929      6313.441       99341.305      98003.576      100953.91      512.34671      1482.2067     -1785.9892      7004.0504      12106.756      19110.807      193477.97      45.507925      45.507925      93.423784          16000 
   3962000   3408.2196      99583.511      6322.3615      99484.183      100172.77      99093.574      1477.3256      1068.454      -1119.9804      7048.3108      12059.173      19107.484      193520.91      45.511292      45.511292      93.430695          16000 
   3963000   3338.2196      96209.102      6328.9858      95674.448      95320.871      97631.987      1576.4955      3667.9903     -1067.2869      6903.5484      12173.07       19076.619      194004.15      45.549142      45.549142      93.508398          16000 
   3964000   3368.8719      100401.61      6335.6024      97299.268      102134.69      101770.88     -1280.8603     -1337.4663      2192.2123      6966.9384      12130.461      19097.399      193637.12      45.5204        45.5204        93.449393          16000 
   3965000   3391.2715      98666.211      6342.213       99607.91       100293.42      96097.3        1565.5542      897.80392      8.9616683      7013.2616      12075.239      19088.501      193788.87      45.532288      45.532288      93.473798          16000 
   3966000   3402.7603      102338.9       6348.8275      102079.5       100592.92      104344.28     -1395.5157     -3084.9221     -216.59627      7037.0208      12078.702      19115.723      193335.19      45.496728      45.496728      93.400797          16000 
   3967000   3382.8485      96246.516      6356.3212      96390.104      98572.237      93777.208      2190.3094     -1455.7726     -1323.6948      6995.8425      12082.911      19078.754      193923.46      45.542826      45.542826      93.495432          16000 
   3968000   3367.2238      103702.98      6364.622       101233.67      101877.8       107997.46     -2431.4762      383.48659      1416.5765      6963.5302      12149.236      19112.767      193375.73      45.499908      45.499908      93.407325          16000 
   3969000   3368.1171      98736.267      6372.4432      97095.969      99654.551      99458.282      2444.1317      3372.0624      631.56889      6965.3775      12140.042      19105.419      193476.61      45.507819      45.507819      93.423565          16000 
   3970000   3358.0044      102099.78      6379.2199      100751.01      102614.25      102934.07      1368.2014     -457.58936      3123.3735      6944.4641      12162.917      19107.381      193429.35      45.504113      45.504113      93.415958          16000 
   3971000   3359.4428      98966.094      6385.8966      97635.103      100676.2       98586.974      749.72508     -1566.2595     -1672.9197      6947.4389      12142.163      19089.602      193710.37      45.526139      45.526139      93.461175          16000 
   3972000   3326.185       97862.479      6392.5146      95868.36       97850.077      99869          271.10923      379.87503      447.60861      6878.6605      12204.684      19083.345      193812.29      45.534122      45.534122      93.477564          16000 
   3973000   3398.4521      103914.01      6399.1313      102126.05      105014.8       104601.19      229.57368      323.24528      2157.3811      7028.1114      12113.863      19141.974      192866.87      45.459962      45.459962      93.32532           16000 
   3974000   3406.3237      98333.666      6409.2811      97694.457      101609.96      95696.583      1663.454      -1360.5433      2313.4177      7044.3901      12015.303      19059.693      194174.36      45.562459      45.562459      93.535737          16000 
   3975000   3396.6099      100720.86      6415.9028      99137.032      101376.14      101649.42     -540.81308     -742.31306      2501.7401      7024.3015      12053.326      19077.627      193881.73      45.539559      45.539559      93.488725          16000 
   3976000   3377.6125      99155.594      6426.1644      98926.956      101212.12      97327.703      822.16854      2066.0533      788.75873      6985.0144      12080.779      19065.793      194067.73      45.554118      45.554118      93.518612          16000 
   3977000   3386.9763      100947.38      6432.7915      101131.75      103524.79      98185.604      2913.6004      554.84998      1446.4152      7004.379       12096.801      19101.18       193490.84      45.508934      45.508934      93.425856          16000 
   3978000   3382.4592      94911.45       6439.4         91097.802      97868.081      95768.466      801.72822      2510.499       582.52625      6995.0375      12036.764      19031.801      194604.69      45.596093      45.596093      93.604784          16000 
   3979000   3380.943       96423.802      6446.0094      94609.178      96534.029      98128.2       -140.66293      634.83293      206.19219      6991.9018      12073.288      19065.19       194046.83      45.552482      45.552482      93.515255          16000 
   3980000   3350.4342      98060.601      6452.6186      99987.57       99058.115      95136.117      789.68358      1715.6575     -545.3004       6928.8087      12178.44       19107.249      193352.26      45.498067      45.498067      93.403546          16000 
   3981000   3390.3282      99849.93       6459.2275      98362.524      97794.289      103392.98      1666.6536      640.08969     -140.88601      7011.3108      12086.021      19097.332      193510.89      45.510506      45.510506      93.429081          16000 
   3982000   3370.9599      97501.103      6465.8338      98118.014      95763.097      98622.197      94.181067     -2783.0066      1337.2816      6971.2566      12106.255      19077.511      193822.43      45.534916      45.534916      93.479193          16000 
   3983000   3364.4351      97927.473      6472.4336      98006.886      99421.824      96353.709      116.16067     -145.2519       1839.661       6957.7631      12120.161      19077.924      193777.37      45.531387      45.531387      93.471949          16000 
   3984000   3369.3646      99907.949      6479.0332      97954.274      102700.23      99069.341      1717.6222     -1095.2125      425.30541      6967.9574      12098.669      19066.627      193934.93      45.543724      45.543724      93.497276          16000 
   3985000   3369.9907      97206.938      6485.6396      96214.828      99537.346      95868.639     -634.87218      206.86995     -1985.2377      6969.2521      12078.412      19047.664      194228.55      45.566697      45.566697      93.544438          16000 
   3986000   3387.7803      102458.94      6492.2482      99456.496      104055.16      103865.15      416.81799     -821.13866     -326.17931      7006.0416      12084.669      19090.711      193528.68      45.5119        45.5119        93.431945          16000 
   3987000   3384.0495      97888.538      6498.8521      95618.584      97628.565      100418.46      1225.1409     -1129.1338      631.2019       6998.3262      12065.982      19064.308      193945.02      45.544514      45.544514      93.498898          16000 
   3988000   3371.8293      101871.25      6505.458       101241.8       102183.06      102188.91     -1306.7923      957.60202     -83.962937      6973.0545      12127.596      19100.651      193359.88      45.498665      45.498665      93.404772          16000 
   3989000   3378.0907      102109.2       6512.0669      99727.246      103739.65      102860.7       497.28738     -2.9143065     -2150.0241      6986.0032      12094.743      19080.746      193671.58      45.5231        45.5231        93.454936          16000 
   3990000   3361.0504      99451.436      6518.6722      96871.246      102014.55      99468.513     -351.09236      2333.4743      2319.8905      6950.7634      12119.281      19070.044      193822.23      45.5349        45.5349        93.47916           16000 
   3991000   3381.0069      96091.65       6525.2825      92949.315      96438.701      98886.936      376.77478     -2701.6688      3503.4557      6992.034       12062.827      19054.861      194061.31      45.553615      45.553615      93.51758           16000 
   3992000   3348.9131      98506.675      6531.8953      98105.774      99320.354      98093.898      468.34217     -1149.7658     -1833.5125      6925.663       12144.463      19070.126      193815.92      45.534406      45.534406      93.478147          16000 
   3993000   3404.3385      103776.54      6538.5012      102387.38      106371.86      102570.38      2205.5334     -129.5967       2278.537       7040.2846      12036.557      19076.841      193676.56      45.52349       45.52349       93.455736          16000 
   3994000   3363.1621      101478.43      6545.1078      98088.169      100391.16      105955.95      1060.3699     -2426.0637     -134.86098      6955.1304      12114.129      19069.259      193782.17      45.531763      45.531763      93.472721          16000 
   3995000   3386.4573      97424.72       6551.7154      97517.475      95981.47       98775.216      928.41277     -416.43742     -1455.8763      7003.3057      12052.801      19056.107      193994.27      45.548368      45.548368      93.50681           16000 
   3996000   3356.6316      96959.748      6558.3214      97010.896      96394.125      97474.222      2940.9381      174.96266     -1071.6625      6941.6252      12110.487      19052.112      194045.03      45.552341      45.552341      93.514966          16000 
   3997000   3402.3457      100222.73      6564.9312      99730.644      99924.263      101013.29     -764.90708      2324.6203     -1584.9459      7036.1634      12045.092      19081.256      193569.32      45.515086      45.515086      93.438485          16000 
   3998000   3381.8753      98884.743      6571.5397      97216.207      99781.111      99656.91      -767.98135     -363.90828      2366.147       6993.83        12105.823      19099.653      193271.11      45.491701      45.491701      93.390477          16000 
   3999000   3383.9625      100378.31      6578.1403      98869.065      101293.77      100972.09      570.98498     -2135.4516     -138.74686      6998.1464      12101.167      19099.313      193255.75      45.490495      45.490495      93.388002          16000 
   4000000   3391.3922      100701.41      6584.7516      100965.36      100008.8       101130.07      99.246438      787.99262      3052.8234      7013.5113      12077.653      19091.164      193383.44      45.500512      45.500512      93.408565          16000 
Loop time of 6584.75 on 8 procs for 1000000 steps with 16000 atoms

Performance: 6.561 ns/day, 3.658 hours/ns, 151.866 timesteps/s
58.5% CPU use with 1 MPI tasks x 8 OpenMP threads

MPI task timing breakdown:
Section |  min time  |  avg time  |  max time  |%varavg| %total
---------------------------------------------------------------
Pair    | 6274.4     | 6274.4     | 6274.4     |   0.0 | 95.29
Neigh   | 11.398     | 11.398     | 11.398     |   0.0 |  0.17
Comm    | 41.065     | 41.065     | 41.065     |   0.0 |  0.62
Output  | 22.566     | 22.566     | 22.566     |   0.0 |  0.34
Modify  | 209.22     | 209.22     | 209.22     |   0.0 |  3.18
Other   |            | 26.13      |            |       |  0.40

Nlocal:          16000 ave       16000 max       16000 min
Histogram: 1 0 0 0 0 0 0 0 0 0
Nghost:          13037 ave       13037 max       13037 min
Histogram: 1 0 0 0 0 0 0 0 0 0
Neighs:              0 ave           0 max           0 min
Histogram: 1 0 0 0 0 0 0 0 0 0
FullNghs:  1.27314e+06 ave 1.27314e+06 max 1.27314e+06 min
Histogram: 1 0 0 0 0 0 0 0 0 0

Total # of neighbors = 1273140
Ave neighs/atom = 79.57125
Neighbor list builds = 31537
Dangerous builds = 0
Total wall time: 7:01:06
