
atom_style atomic
units metal
boundary p p p
#atom_modify sort 0 0.0
newton on

read_data data.lammps
Reading data file ...
  orthogonal box = (0 0 0) to (43.790145 43.790145 87.58029)
  1 by 1 by 1 MPI processor grid
  reading atoms ...
  16040 atoms
  read_data CPU = 0.048 seconds
# replicate 10 10 20

### interactions

pair_style flare
pair_coeff * * lmp.flare
Reading potential file lmp.flare with DATE: Thu

# compute unc all flare/std/atom L_inv_lmp.flare sparse_desc_lmp.flare
# compute MaxUnc all reduce max c_unc

mass 1 12.011000
mass 2 28.085000

thermo_style custom step temp press cpu pxx pyy pzz pxy pxz pyz ke pe etotal vol lx ly lz atoms    #c_MaxUnc
thermo 1000
timestep 0.0005
restart 100000 restart_*.dat

#################### Equilibrate at P and T_es ##############################
velocity all create $T 41928459 rot yes dist gaussian
velocity all create 3600 41928459 rot yes dist gaussian
fix mom all momentum 1000 linear 1 1 1 angular

fix 1 all npt temp $T $T $(100.0*dt) iso $P $P $(1000.0*dt)
fix 1 all npt temp 3600 $T $(100.0*dt) iso $P $P $(1000.0*dt)
fix 1 all npt temp 3600 3600 $(100.0*dt) iso $P $P $(1000.0*dt)
fix 1 all npt temp 3600 3600 0.050000000000000002776 iso $P $P $(1000.0*dt)
fix 1 all npt temp 3600 3600 0.050000000000000002776 iso 600000 $P $(1000.0*dt)
fix 1 all npt temp 3600 3600 0.050000000000000002776 iso 600000 600000 $(1000.0*dt)
fix 1 all npt temp 3600 3600 0.050000000000000002776 iso 600000 600000 0.5
dump 1 all custom 1000 1equil.bin id type x y z vx vy vz
run   10000 # report performance
Neighbor list info ...
  update every 1 steps, delay 10 steps, check yes
  max neighbors/atom: 2000, page size: 100000
  master list distance cutoff = 6
  ghost atom cutoff = 6
  binsize = 6, bins = 8 8 15
  1 neighbor lists, perpetual/occasional/extra = 1 0 0
  (1) pair flare/kk, perpetual
      attributes: full, newton on, kokkos_device
      pair build: full/bin/kk/device
      stencil: full/bin/3d
      bin: kk/device
Per MPI rank memory allocation (min/avg/max) = 16.04 | 16.04 | 16.04 Mbytes
   Step          Temp          Press           CPU            Pxx            Pyy            Pzz            Pxy            Pxz            Pyz           KinEng         PotEng         TotEng         Volume           Lx             Ly             Lz          Atoms   
         0   3600           81902.079      0              82518.078      81452.516      81735.644      1102.7296     -207.42286     -845.17692      7463.5325     -2985.8921      4477.6404      167941.93      43.790145      43.790145      87.58029           16040 
      1000   3705.7411      600982.78      7.191709       600660.83      600793.54      601493.95      3634.7549     -684.56629     -4113.122       7682.7552      8440.0753      16122.83       142892.71      41.49477       41.49477       82.98954           16040 
      2000   3562.779       601854.91      14.670151      599751.95      603550.71      602262.07      1830.7189     -2287.9067      2576.8324      7386.3657      8212.6133      15598.979      142528.13      41.45945       41.45945       82.9189            16040 
      3000   3609.5033      599484.07      22.149653      600569.37      599111.31      598771.53     -1306.6286      1357.8987     -5223.5131      7483.2348      8373.5978      15856.833      142585.54      41.465015      41.465015      82.93003           16040 
      4000   3585.2502      598850.42      29.629564      599071.32      596809.27      600670.67     -1505.3554     -1048.9066      1403.7364      7432.9532      8278.5774      15711.531      142496.43      41.456376      41.456376      82.912751          16040 
      5000   3621.8626      600796.25      37.11958       601700.02      600226.86      600461.86      5270.8963     -1250.0873     -1189.2153      7508.8581      8312.367       15821.225      142476.65      41.454458      41.454458      82.908915          16040 
      6000   3557.6423      599055.03      44.605975      601222.17      598545.85      597397.08      1226.303      -101.31429      1772.1168      7375.7163      8291.368       15667.084      142598.18      41.466241      41.466241      82.932481          16040 
      7000   3607.6269      600246.71      52.091699      601475.61      601033.54      598230.99     -111.55889      1732.4529     -2438.8933      7479.3447      8272.8415      15752.186      142501.92      41.456908      41.456908      82.913817          16040 
      8000   3627.7679      600915.1       59.597505      598713.97      601363.37      602667.96     -2922.4366     -282.16659      5339.0518      7521.1009      8222.6962      15743.797      142539.81      41.460582      41.460582      82.921163          16040 
      9000   3609.8732      599853.82      67.102035      599178.68      599249.56      601133.22      195.53769     -138.29452      2014.8093      7484.0016      8169.5786      15653.58       142612.14      41.467594      41.467594      82.935188          16040 
     10000   3614.6714      597386.76      74.605489      597231.09      596968.16      597961.04      1423.558      -1068.8803     -843.1869       7493.9492      8208.5594      15702.509      142603.51      41.466757      41.466757      82.933513          16040 
Loop time of 74.6055 on 8 procs for 10000 steps with 16040 atoms

Performance: 5.790 ns/day, 4.145 hours/ns, 134.038 timesteps/s
61.9% CPU use with 1 MPI tasks x 8 OpenMP threads

MPI task timing breakdown:
Section |  min time  |  avg time  |  max time  |%varavg| %total
---------------------------------------------------------------
Pair    | 71.349     | 71.349     | 71.349     |   0.0 | 95.64
Neigh   | 0.11361    | 0.11361    | 0.11361    |   0.0 |  0.15
Comm    | 0.39527    | 0.39527    | 0.39527    |   0.0 |  0.53
Output  | 0.01389    | 0.01389    | 0.01389    |   0.0 |  0.02
Modify  | 2.4545     | 2.4545     | 2.4545     |   0.0 |  3.29
Other   |            | 0.279      |            |       |  0.37

Nlocal:          16040 ave       16040 max       16040 min
Histogram: 1 0 0 0 0 0 0 0 0 0
Nghost:          13969 ave       13969 max       13969 min
Histogram: 1 0 0 0 0 0 0 0 0 0
Neighs:              0 ave           0 max           0 min
Histogram: 1 0 0 0 0 0 0 0 0 0
FullNghs:  1.62548e+06 ave 1.62548e+06 max 1.62548e+06 min
Histogram: 1 0 0 0 0 0 0 0 0 0

Total # of neighbors = 1625478
Ave neighs/atom = 101.33903
Neighbor list builds = 282
Dangerous builds = 0
run  990000
Per MPI rank memory allocation (min/avg/max) = 16.23 | 16.23 | 16.23 Mbytes
   Step          Temp          Press           CPU            Pxx            Pyy            Pzz            Pxy            Pxz            Pyz           KinEng         PotEng         TotEng         Volume           Lx             Ly             Lz          Atoms   
     10000   3614.6714      597386.76      0              597231.09      596968.16      597961.04      1423.558      -1068.8803     -843.1869       7493.9492      8208.5594      15702.509      142603.51      41.466757      41.466757      82.933513          16040 
     11000   3597.3886      608267.39      7.4843842      610044.64      606575.58      608181.96      1230.5124      404.95813      1573.9758      7458.1186      8309.2988      15767.417      142213.86      41.428955      41.428955      82.857909          16040 
     12000   3626.5118      598802.82      14.980446      597125.4       599551.14      599731.91     -3146.6596      2480.2512      573.85524      7518.4969      8159.2315      15677.728      142538.22      41.460428      41.460428      82.920856          16040 
     13000   3576.4056      595947.89      22.484619      596979.95      594668.87      596194.83     -528.22792      2755.6339     -1428.0966      7414.6164      8050.7987      15465.415      142653.75      41.471626      41.471626      82.943252          16040 
     14000   3607.793       602013.56      29.987335      600281.86      602138.8       603620         2152.939      -3234.0601     -4444.7054      7479.6889      8233.9167      15713.606      142468.92      41.453707      41.453707      82.907414          16040 
     15000   3609.1424      601488.58      37.488225      599998.06      603300.4       601167.28      3860.9425      1378.6673     -456.00316      7482.4865      8277.256       15759.742      142552.6       41.461822      41.461822      82.923645          16040 
     16000   3604.1079      599334.86      44.992618      600041.09      598313.41      599650.09     -1633.425      -3030.3938      1481.9386      7472.049       8147.0456      15619.095      142510.61      41.457751      41.457751      82.915502          16040 
     17000   3585.0914      599619.83      52.494823      597981.62      598648.68      602229.2       966.35741      821.4502       1400.6705      7432.6239      8165.9883      15598.612      142507.56      41.457455      41.457455      82.91491           16040 
     18000   3614.514       594298.49      59.999184      596161.23      593142.14      593592.1      -2152.7046     -4170.3393     -733.05306      7493.6229      8187.3289      15680.952      142697.06      41.475823      41.475823      82.951646          16040 
     19000   3589.0588      607551.85      67.505467      608022.44      604542.57      610090.53     -3697.4398     -1454.1648      1802.6314      7440.8491      8244.5632      15685.412      142217.41      41.429299      41.429299      82.858598          16040 
     20000   3616.4761      603022.77      75.003765      602651.92      603229.72      603186.66      2086.4632      7560.4583     -1123.6404      7497.6909      8216.9331      15714.624      142456.55      41.452508      41.452508      82.905016          16040 
     21000   3605.878       597961.71      82.502686      598703.51      598339.49      596842.12     -2062.0652     -3634.3347      5112.5019      7475.7187      8032.7895      15508.508      142594.13      41.465848      41.465848      82.931696          16040 
     22000   3612.0253      601438.03      90.001302      600244.61      602171.64      601897.84     -595.41549      4439.9142     -381.4602       7488.4634      8147.7495      15636.213      142424.4       41.449389      41.449389      82.898779          16040 
     23000   3571.3243      602092.31      97.504538      600593.27      605549.18      600134.46      3531.4174     -3568.9414     -645.99414      7404.0819      8164.5321      15568.614      142338.28      41.441033      41.441033      82.882066          16040 
     24000   3622.1708      598574.15      105.00576      598752.35      596907.02      600063.07      1586.208       1056.2601     -1624.0487      7509.497       8175.0187      15684.516      142544.39      41.461026      41.461026      82.922051          16040 
     25000   3598.7881      595234.31      112.50736      594932.29      595035.15      595735.5       226.39831     -1639.6753     -1438.7398      7461.02        8119.5095      15580.53       142745         41.480467      41.480467      82.960933          16040 
     26000   3544.3033      605044.3       120.00816      604911.02      605645.76      604576.1       1483.5309     -3212.0871      2514.8826      7348.0619      8262.1559      15610.218      142257.18      41.433161      41.433161      82.866323          16040 
     27000   3604.6524      600272.28      127.5146       600854.14      600756.13      599206.57     -4742.974      -214.36871     -34.057744      7473.1778      8110.5975      15583.775      142479.51      41.454735      41.454735      82.90947           16040 
     28000   3620.5553      596412.41      135.01978      595601.35      597259.25      596376.62     -314.64078      1948.4107      2752.2921      7506.1478      8132.8541      15639.002      142643.89      41.470671      41.470671      82.941342          16040 
     29000   3630.9588      602936.74      142.52389      604931.04      600725.89      603153.29      1845.4917     -589.67994      1501.645       7527.7163      8085.689       15613.405      142391.22      41.446171      41.446171      82.892341          16040 
     30000   3589.3985      598590.19      150.03206      599683.91      599428.13      596658.51      2289.1079      1540.1509     -540.50245      7441.5534      8148.6756      15590.229      142552.71      41.461833      41.461833      82.923666          16040 
     31000   3589.8835      595840.26      157.53462      594933.81      594352.95      598234.01     -1704.7853     -1601.6087      823.90257      7442.559       8049.5172      15492.076      142627.89      41.46912       41.46912       82.93824           16040 
     32000   3628.4707      603346.04      165.03842      603235.57      603896.93      602905.63     -1396.0049      2990.6138     -1453.948       7522.558       8059.3717      15581.93       142422.83      41.449237      41.449237      82.898474          16040 
     33000   3590.7836      601114.36      172.5441       599179.48      600620.25      603543.35     -887.60137      1609.0399      3940.8469      7444.425       8137.4693      15581.894      142477.94      41.454582      41.454582      82.909164          16040 
     34000   3573.5899      593925.83      180.05057      594531.91      596305.8       590939.78      2444.6866     -321.71679      5216.6433      7408.7789      8069.1786      15477.958      142769.62      41.482851      41.482851      82.965703          16040 
     35000   3569.2047      601895.74      187.55723      601940.88      601667.34      602078.98     -3450.4124     -463.35548      768.68389      7399.6875      8060.0035      15459.691      142401.04      41.447123      41.447123      82.894246          16040 
     36000   3640.6637      600780.27      195.06259      601456.27      601738.75      599145.81      1660.5723      50.191056     -1374.9521      7547.8366      8006.5265      15554.363      142512.28      41.457912      41.457912      82.915825          16040 
     37000   3590.8935      601795.72      202.5698       602599.96      602695.56      600091.65     -1440.6143      1063.8866      1939.091       7444.6529      8175.2214      15619.874      142501.94      41.45691       41.45691       82.913819          16040 
     38000   3606.2061      602947.23      210.07538      602184.97      603952.37      602704.35     -2217.3103     -2118.0886      804.83894      7476.399       7970.9823      15447.381      142375.32      41.444628      41.444628      82.889255          16040 
     39000   3609.9473      595002.78      217.5821       593739.05      596205.43      595063.85      4415.658       1416.4937     -2909.7532      7484.1553      8011.5365      15495.692      142780.97      41.483951      41.483951      82.967902          16040 
     40000   3599.3877      597612.22      225.0878       597664.61      598857.46      596314.59     -2595.1287     -3286.985      -1252.3971      7462.2631      7994.2729      15456.536      142587.18      41.465174      41.465174      82.930349          16040 
     41000   3615.739       601620.16      232.59587      599794.82      604015.49      601050.17      1740.4788      861.31971      2162.0641      7496.1626      8096.5229      15592.686      142509.89      41.457681      41.457681      82.915362          16040 
     42000   3561.6775      598784.6       240.10586      599255.41      598059.05      599039.33      2589.1493      1335.9032      2142.7416      7384.082       8057.3438      15441.426      142483.88      41.455158      41.455158      82.910317          16040 
     43000   3599.8803      600979.75      247.61533      599329.97      601729.81      601879.48      3040.1251      1979.2908      602.24951      7463.2843      8111.7908      15575.075      142511.93      41.457879      41.457879      82.915757          16040 
     44000   3589.1343      604640.84      255.12289      603857.07      604363.97      605701.49     -792.92165     -3735.9529      959.88133      7441.0057      8141.4485      15582.454      142297.57      41.437082      41.437082      82.874164          16040 
     45000   3622.6833      599446.33      262.6333       600306.66      599273.52      598758.81     -374.31295      2266.0611     -1653.0885      7510.5596      8028.7609      15539.32       142541.21      41.460718      41.460718      82.921435          16040 
     46000   3614.9935      591234.64      270.14215      588998.27      590135.28      594570.38     -36.457564      197.65676     -3870.6895      7494.6172      7999.9199      15494.537      142836.49      41.489327      41.489327      82.978655          16040 
     47000   3616.7271      604143.91      277.65054      603807.43      603357.74      605266.57      3026.3687      2099.1891      626.00671      7498.2111      8114.0703      15612.281      142330.97      41.440324      41.440324      82.880648          16040 
     48000   3594.4739      599574.4       285.15692      600853.4       595950.66      601919.12     -693.22239      442.68957     -223.32862      7452.0757      8001.7718      15453.848      142474.12      41.454212      41.454212      82.908424          16040 
     49000   3571.5379      600972.09      292.66384      597421.86      600673.91      604820.5       3122.6261     -594.36527     -2040.1857      7404.5247      8107.552       15512.077      142441.81      41.451078      41.451078      82.902157          16040 
     50000   3611.5585      602482.54      300.17071      601823.75      601836.35      603787.53      2245.6223      4538.9071     -377.91086      7487.4957      8043.3123      15530.808      142457.73      41.452623      41.452623      82.905245          16040 
     51000   3587.8339      594771.23      307.67992      594208.33      594739.55      595365.82     -3306.3693     -655.96823     -968.37119      7438.3097      8001.43        15439.74       142760.3       41.481949      41.481949      82.963897          16040 
     52000   3631.1747      598901.82      315.18387      598837.26      598827.89      599040.32     -2933.2403      2952.1388     -437.40944      7528.1641      8086.1447      15614.309      142525.5       41.459195      41.459195      82.918389          16040 
     53000   3606.2598      604268.46      322.69095      603052.88      603630.4       606122.1      -1824.2642     -550.83631      902.93142      7476.5104      8172.9307      15649.441      142370.78      41.444187      41.444187      82.888374          16040 
     54000   3556.2182      595579         330.19855      595840.2       596937.24      593959.57      1747.3054      3061.4807      1117.2579      7372.7639      8053.6217      15426.386      142654.65      41.471713      41.471713      82.943426          16040 
     55000   3597.1439      601304.12      337.70553      600382.88      601704.41      601825.06     -1045.4366      1256.156       1667.3742      7457.6112      8002.1287      15459.74       142423.89      41.449339      41.449339      82.898678          16040 
     56000   3622.1972      602321.08      345.20861      603407.13      601173.39      602382.73     -3161.8888     -538.67766      1990.0779      7509.5517      8078.1009      15587.653      142404.83      41.447491      41.447491      82.894981          16040 
     57000   3604.6229      596456.9       352.71552      598291.66      596629.07      594449.97      481.54391      527.31287     -1967.5688      7473.1167      7900.5881      15373.705      142595.42      41.465973      41.465973      82.931945          16040 
     58000   3621.5311      597607.6       360.22091      598152.47      595923.07      598747.25      631.92952     -1115.1219      876.5435       7508.1709      7994.0528      15502.224      142641.47      41.470436      41.470436      82.940873          16040 
     59000   3652.6847      603817.58      367.72825      603666.61      603762.4       604023.73     -1258.182      -3078.9392     -2366.7152      7572.7586      8111.3137      15684.072      142403.07      41.447319      41.447319      82.894639          16040 
     60000   3583.7753      596015.13      375.23602      596358.73      596939.76      594746.9       2495.2361      1543.3435      2626.4534      7429.8954      8027.4225      15457.318      142667.63      41.472972      41.472972      82.945943          16040 
     61000   3581.1275      599027.62      382.74228      600040.6       598589.6       598452.65     -1455.2617     -455.95232     -1893.1279      7424.406       7956.649       15381.055      142529.49      41.459582      41.459582      82.919163          16040 
     62000   3587.3682      604919.31      390.24961      603490.48      607476.83      603790.62     -838.06935     -3169.6939     -471.54646      7437.3442      8141.9228      15579.267      142388.13      41.44587       41.44587       82.89174           16040 
     63000   3616.9134      598899.26      397.75468      597254.99      598184.56      601258.22      1277.3284      3934.0387     -2901.9785      7498.5974      8074.8151      15573.413      142555.25      41.462079      41.462079      82.924158          16040 
     64000   3559.0624      591587.45      405.25836      591017.3       591854.75      591890.29      2073.3564      170.65127     -1389.2235      7378.6605      7994.1889      15372.849      142766.95      41.482593      41.482593      82.965186          16040 
     65000   3637.3145      604607.14      412.76512      605274.86      605738.57      602807.99      1373.7106     -1579.7133      4547.2522      7540.893       8043.1171      15584.01       142320.72      41.439329      41.439329      82.878658          16040 
     66000   3607.0155      598323.69      420.27135      600010.13      597923.1       597037.84     -3099.5631     -5072.8279     -2444.3205      7478.077       8041.0429      15519.12       142517.28      41.458398      41.458398      82.916795          16040 
     67000   3575.0665      598229.2       427.77989      599061.27      596208.81      599417.52      963.36437      1905.8465      1231.3449      7411.8403      7987.1417      15398.982      142525.37      41.459182      41.459182      82.918364          16040 
     68000   3578.4429      602670.49      435.28501      603415.43      602596.19      601999.84      1114.1002      1940.5451     -3797.0422      7418.8403      8064.1028      15482.943      142399.06      41.446931      41.446931      82.893862          16040 
     69000   3573.286       600779.11      442.78932      598586.31      603773.86      599977.17      651.37995      1844.8563     -43.931301      7408.1489      8133.592       15541.741      142481.3       41.454908      41.454908      82.909817          16040 
     70000   3589.0423      596558.48      450.29286      598425.9       594413.24      596836.3       200.66043     -2367.8722      1538.0759      7440.8149      8020.9301      15461.745      142580.62      41.464538      41.464538      82.929076          16040 
     71000   3640.5699      601607.07      457.79685      599606.12      600815.06      604400.03      1024.2762     -4876.0721     -3828.8228      7547.6422      8003.9204      15551.563      142442.65      41.451159      41.451159      82.902319          16040 
     72000   3614.4773      608154.63      465.29901      608676.47      607313.41      608474.02      2654.8813      357.00345     -1377.7056      7493.5468      8162.2265      15655.773      142208.02      41.428388      41.428388      82.856776          16040 
     73000   3573.0221      597875.27      472.80527      598242.54      598266.94      597116.35      3810.922       888.57506     -3022.3609      7407.6018      7945.4501      15353.052      142612.5       41.467629      41.467629      82.935257          16040 
     74000   3596.4366      598590.75      480.31117      598654.14      597205.5       599912.61     -848.58764     -281.12239     -2947.2363      7456.1449      8022.365       15478.51       142655.68      41.471813      41.471813      82.943626          16040 
     75000   3597.169       602711.9       487.81224      600993.34      603694.73      603447.63     -2050.6629      1587.3114     -3676.2266      7457.6633      7938.9333      15396.597      142385.14      41.44558       41.44558       82.89116           16040 
     76000   3602.6264      600357.26      495.31285      600656.47      601025.89      599389.42     -114.38647      1669.5525     -3552.4411      7468.9776      8035.9083      15504.886      142485.63      41.455328      41.455328      82.910655          16040 
     77000   3611.8877      595945.57      502.81485      594487.36      596785.55      596563.81     -722.87548      838.4453      -415.51772      7488.1781      7916.3377      15404.516      142664.13      41.472633      41.472633      82.945265          16040 
     78000   3573.0808      601440.34      510.3186       600782.65      601928.1       601610.28     -2983.1356     -2325.2787      1300.9344      7407.7236      7996.7361      15404.46       142461.17      41.452956      41.452956      82.905913          16040 
     79000   3671.6432      604660.14      517.82093      604260.88      605357.03      604362.51      564.6442      -151.48718      3365.4376      7612.0635      8030.4873      15642.551      142325.82      41.439824      41.439824      82.879648          16040 
     80000   3584.9031      599504.43      525.32347      600368.73      599178.01      598966.55     -3442.9993     -3170.0692      2510.0222      7432.2334      8067.2106      15499.444      142489.95      41.455747      41.455747      82.911494          16040 
     81000   3616.1244      595869.99      532.82589      595080.85      595103.94      597425.18     -6696.9922     -866.35797     -3104.0595      7496.9617      7996.6357      15493.597      142618.84      41.468243      41.468243      82.936486          16040 
     82000   3588.4496      601846.05      540.32909      603851.85      598891.18      602795.12     -1823.5479     -4935.9092     -1897.1608      7439.5861      8053.6592      15493.245      142411.81      41.448168      41.448168      82.896335          16040 
     83000   3607.3165      598222.92      547.83307      597909.81      597859.95      598898.99      2662.0574     -1534.5667      1389.3095      7478.7011      8075.3937      15554.095      142489.58      41.455711      41.455711      82.911423          16040 
     84000   3573.8483      594328.62      555.34042      595764.7       592774.35      594446.81      1048.9723      2009.3395     -3392.8734      7409.3147      7858.9292      15268.244      142711.63      41.477234      41.477234      82.954469          16040 
     85000   3611.4845      603142.43      562.84449      604505.32      603254.07      601667.91     -735.55911     -3993.2823     -2154.7118      7487.3421      8115.6978      15603.04       142390.91      41.44614       41.44614       82.892281          16040 
     86000   3617.414       602366.2       570.35202      603036.45      602281.69      601780.47      449.21659     -457.29995      569.05435      7499.6352      8097.2905      15596.926      142424.91      41.449439      41.449439      82.898878          16040 
     87000   3603.3788      595918.54      577.85745      596271.46      595403.59      596080.57      3660.6171      3573.4485     -1069.0847      7470.5375      7931.4565      15401.994      142657.21      41.471962      41.471962      82.943923          16040 
     88000   3611.2166      601811.6       585.36358      600768.18      602976.91      601689.7       2910.8759     -162.16895     -50.139786      7486.7868      8122.4396      15609.226      142455.22      41.452379      41.452379      82.904758          16040 
     89000   3604.772       601904.4       592.87039      603960.81      600544.32      601208.07      3432.8803     -2613.8959      97.270545      7473.4258      8045.8055      15519.231      142399.95      41.447017      41.447017      82.894034          16040 
     90000   3617.8791      594593.64      600.37832      594774.8       594715.06      594291.07      4191.9792     -2176.4858     -165.63289      7500.5995      8050.3572      15550.957      142732.55      41.479261      41.479261      82.958521          16040 
     91000   3608.5601      601162.25      607.88147      602307.84      601251.17      599927.72     -2063.1803      3989.2093     -2933.9119      7481.2792      8027.2791      15508.558      142434.85      41.450403      41.450403      82.900805          16040 
     92000   3631.2815      602597.03      615.38108      602496.93      602731.04      602563.11     -360.07004      1998.6886     -695.41781      7528.3854      8054.1665      15582.552      142400.51      41.447072      41.447072      82.894143          16040 
     93000   3601.2065      594185.57      622.8903       595590.41      594155.52      592810.79      142.95231      1898.8139      3122.7808      7466.0337      7915.3055      15381.339      142650.49      41.471311      41.471311      82.942621          16040 
     94000   3583.977       601677.91      630.40071      601378.15      603330.94      600324.64     -421.08641      555.53385     -548.2877       7430.3136      8143.3099      15573.624      142495.2       41.456256      41.456256      82.912512          16040 
     95000   3615.1101      602986.68      637.90751      604534.45      602437.88      601987.72      801.37337     -1858.8408      4072.9548      7494.8587      8022.0151      15516.874      142394.54      41.446493      41.446493      82.892985          16040 
     96000   3598.4062      599377.39      645.41562      600662.19      599225.98      598243.99     -1553.2786     -56.168034      1757.2621      7460.2283      8000.2485      15460.477      142590.48      41.465495      41.465495      82.930989          16040 
     97000   3611.3064      595426.8       652.92666      595548.13      595061.07      595671.19     -546.40892      1422.782       1062.1774      7486.9729      8008.7         15495.673      142713.52      41.477418      41.477418      82.954836          16040 
     98000   3600.8705      606115.88      660.43755      606393.53      606131.81      605822.29      2658.5977      1712.1186      1475.0685      7465.3372      7993.3021      15458.639      142254.87      41.432937      41.432937      82.865874          16040 
     99000   3588.727       600348.53      667.9465       598047.14      602060.73      600937.71      1672.0225     -1694.3843     -1067.2292      7440.1613      8063.7435      15503.905      142471.47      41.453955      41.453955      82.90791           16040 
    100000   3578.7007      598661.27      675.46748      597091.87      598817.3       600074.62      1224.2849      1334.2997     -1525.6078      7419.3747      8046.6747      15466.049      142506.33      41.457336      41.457336      82.914672          16040 
    101000   3613.9564      599875.5       682.98872      598032.64      603148.62      598445.25      1678.1276     -1465.0391      3841.2576      7492.467       8068.7507      15561.218      142501.5       41.456867      41.456867      82.913734          16040 
    102000   3592.5267      601100.54      690.50666      600067.67      599653.52      603580.44      2280.1363      3377.1228     -2517.7269      7448.0388      8055.0745      15503.113      142430.85      41.450014      41.450014      82.900029          16040 
    103000   3610.4512      593418.88      698.02084      595666.6       593514         591076.03      1272.2509      14.311868     -886.49573      7485.2         7992.1498      15477.35       142708.1       41.476892      41.476892      82.953784          16040 
    104000   3541.7388      595350.4       705.53498      594137.06      595561.2       596352.94      3234.1089     -1333.0629     -330.27334      7342.7452      7969.1033      15311.849      142657.2       41.47196       41.47196       82.943921          16040 
    105000   3613.3047      604188.15      713.05244      603912.69      604117.36      604534.38      698.23578      898.65117     -604.42653      7491.1158      8063.2043      15554.32       142390.5       41.446101      41.446101      82.892201          16040 
    106000   3637.6127      599940.53      720.56744      600343.81      601183.92      598293.86     -1540.8762      6510.6232     -1198.7595      7541.5113      8061.583       15603.094      142574.05      41.463901      41.463901      82.927803          16040 
    107000   3600.8696      602413.24      728.08392      601242.64      603832.78      602164.29      1095.2698      2256.1234      699.69887      7465.3354      7988.4298      15453.765      142494.73      41.456211      41.456211      82.912422          16040 
    108000   3611.8986      599460.62      735.60193      599293.77      601485.19      597602.91      1159.6317     -3103.8847     -575.70081      7488.2008      8100.6716      15588.872      142510.93      41.457782      41.457782      82.915563          16040 
    109000   3548.1499      602101.78      743.11964      602266.14      604357.17      599682.04     -1865.9579     -19.096194     -3253.791       7356.0367      8103.3711      15459.408      142456.93      41.452545      41.452545      82.905089          16040 
    110000   3637.5818      602420.14      750.63993      604273.65      601045.05      601941.73     -2206.5859      968.55231     -516.30073      7541.4471      8076.8978      15618.345      142477.21      41.454511      41.454511      82.909023          16040 
    111000   3599.8421      589084.66      758.15712      588065.83      589884.05      589304.11      217.53961     -98.169004     -475.90652      7463.2051      7896.906       15360.111      142938.93      41.499243      41.499243      82.998486          16040 
    112000   3583.0992      598833.65      765.67888      600052.73      598431.78      598016.45      538.67333      3281.6757     -1614.5595      7428.4936      7939.3625      15367.856      142501.26      41.456844      41.456844      82.913688          16040 
    113000   3582.1109      601023.39      773.20109      600509.64      601912.95      600647.56     -1676.8803      3326.3827      3870.8234      7426.4448      8086.8424      15513.287      142479.25      41.45471       41.45471       82.909419          16040 
    114000   3577.6626      601289.44      780.72072      602596.53      599818.97      601452.82     -394.15655     -1951.5112      2163.1052      7417.2225      7946.556       15363.778      142433.11      41.450234      41.450234      82.900468          16040 
    115000   3603.5072      599083.25      788.24117      598748.19      598090.8       600410.77      4487.358      -4486.373      -4265.7915      7470.8036      8055.1691      15525.973      142526.16      41.459258      41.459258      82.918516          16040 
    116000   3580.7087      600722.51      795.76241      599628.8       599726.49      602812.24      676.8539      -1579.2483     -215.87187      7423.5377      8015.651       15439.189      142512.45      41.457929      41.457929      82.915859          16040 
    117000   3600.7829      597835.23      803.28192      597291.87      598111.58      598102.25      392.47412     -1417.3492     -1246.7059      7465.1556      7984.6118      15449.767      142614.52      41.467824      41.467824      82.935648          16040 
    118000   3583.4902      600657.56      810.80245      599315.05      600122.74      602534.87      2677.7997      543.70171      121.61813      7429.3043      7970.6017      15399.906      142426.71      41.449613      41.449613      82.899226          16040 
    119000   3635.8145      607479.11      818.32283      605166.61      608087.45      609183.26     -725.08625     -4642.3947     -105.46848      7537.7832      8105.0052      15642.788      142208.55      41.428439      41.428439      82.856878          16040 
    120000   3605.3002      595094.31      825.8446       593482.35      597625.71      594174.88     -1951.1667      4818.0749     -3.1225706      7474.5209      7945.7706      15420.292      142600.71      41.466486      41.466486      82.932972          16040 
    121000   3588.0045      598825.05      833.369        599936.23      597537.68      599001.24      2849.8579     -5427.2353      1696.8428      7438.6633      8035.561       15474.224      142537.22      41.460331      41.460331      82.920662          16040 
    122000   3627.3702      599642.95      840.8882       597557.23      600585.33      600786.29     -436.7534      -583.85732     -804.49527      7520.2766      8006.6025      15526.879      142472.09      41.454015      41.454015      82.90803           16040 
    123000   3606.0735      600385.81      848.40637      600968.12      600625.48      599563.83      810.6375       1801.3181      1113.1012      7476.1241      8045.8366      15521.961      142498.28      41.456555      41.456555      82.91311           16040 
    124000   3584.2626      600220.76      855.9252       599406.89      599551.86      601703.54      1636.2944      993.50285     -589.58555      7430.9057      7992.0479      15422.954      142406.82      41.447683      41.447683      82.895367          16040 
    125000   3606.4038      604524.75      863.44192      605158.38      602914.87      605501        -1380.5865      5959.2778      2883.3077      7476.8089      8077.2643      15554.073      142332.64      41.440486      41.440486      82.880971          16040 
    126000   3556.7582      593994.33      870.96207      593427.38      594439.28      594116.34     -190.13001      152.15188     -1189.3433      7373.8833      7925.4035      15299.287      142723.23      41.478358      41.478358      82.956717          16040 
    127000   3615.3006      598320.94      878.47934      595862.24      598436.45      600664.13      1158.3146      2813.5602      3436.5405      7495.2536      7979.4647      15474.718      142581.73      41.464646      41.464646      82.929291          16040 
    128000   3611.8505      605694.97      885.99506      606624.04      603509.95      606950.93     -3774.2296     -1669.0488      2722.4454      7488.1009      8018.1902      15506.291      142299.03      41.437223      41.437223      82.874446          16040 
    129000   3597.5392      598143.58      893.51228      597202.09      597321.96      599906.68     -4013.2544     -11.219793     -256.76131      7458.4308      7920.9463      15379.377      142613.65      41.46774       41.46774       82.935481          16040 
    130000   3626.8055      596580.17      901.02784      596416.92      596106.21      597217.37     -7347.5102     -1934.2071      3607.2437      7519.1057      8032.1142      15551.22       142645.25      41.470802      41.470802      82.941605          16040 
    131000   3616.7842      599323.3       908.54592      599615.8       599893.55      598460.54      926.75825      4884.245       609.18043      7498.3296      7953.8294      15452.159      142460.27      41.452868      41.452868      82.905736          16040 
    132000   3639.0875      598623.65      916.06776      597885.2       598338.58      599647.16     -82.489604      1608.1015     -781.92177      7544.5689      7951.9265      15496.495      142548.53      41.461427      41.461427      82.922855          16040 
    133000   3566.9771      596488.86      923.58816      597374.05      595024.13      597068.39      4594.1953     -2564.3608     -407.56921      7395.0693      7914.9061      15309.975      142585.06      41.464969      41.464969      82.929937          16040 
    134000   3582.3763      608029.38      931.10648      609416.27      609843.87      604828.01      1454.9564      211.50704     -3373.2043      7426.9949      8109.6795      15536.674      142229.41      41.430465      41.430465      82.86093           16040 
    135000   3591.2105      602786.01      938.62457      601569.65      602175.71      604612.69     -2764.5425     -820.58867      1866.1751      7445.31        7991.6721      15436.982      142369.13      41.444027      41.444027      82.888054          16040 
    136000   3618.9459      597204.93      946.14083      597468.96      596951.24      597194.59     -118.00326      789.24824      471.669        7502.8113      7982.0698      15484.881      142645.95      41.47087       41.47087       82.941741          16040 
    137000   3586.1039      602395.96      953.65994      602089.71      604195.1       600903.08      2931.3378      363.54631      643.26532      7434.723       8073.9074      15508.63       142412.98      41.448282      41.448282      82.896563          16040 
    138000   3577.8563      602877.3       961.17488      601465.27      604083.94      603082.7      -2467.3589      4738.5197     -202.34855      7417.6241      7950.0056      15367.63       142399.77      41.446999      41.446999      82.893999          16040 
    139000   3639.0593      597409.84      968.68633      597615.54      597847.39      596766.59      1869.5491      390.73507     -1296.1948      7544.5104      7957.1408      15501.651      142588.42      41.465295      41.465295      82.930589          16040 
    140000   3612.5949      594366.05      976.19842      597287.96      592995.97      592814.22     -516.71147     -990.89094      1467.2396      7489.6442      7920.2675      15409.912      142684.62      41.474618      41.474618      82.949236          16040 
    141000   3654.5067      604332.97      983.71021      605960.36      605606.18      601432.38     -1977.9248      525.92615      247.48878      7576.5359      8019.0991      15595.635      142348.2       41.441995      41.441995      82.883991          16040 
    142000   3620.9402      601845.58      991.22532      603943.71      602047         599546.03      619.44585     -53.074887      3809.5966      7506.9457      8048.5047      15555.45       142424.03      41.449354      41.449354      82.898707          16040 
    143000   3619.4557      595572.43      998.73759      595552.89      593066.88      598097.53      3297.6534     -6224.6472      1024.0746      7503.8682      7910.9415      15414.81       142614.42      41.467815      41.467815      82.93563           16040 
    144000   3601.4439      603684.2       1006.2517      601718.77      604167.86      605165.98     -1730.9399      1666.1246      5099.989       7466.5259      8046.3232      15512.849      142341.26      41.441322      41.441322      82.882644          16040 
    145000   3630.2394      601906.04      1013.7637      603399.08      601458.58      600860.46      808.89138      648.87029      1785.5789      7526.225       7906.2007      15432.426      142333.57      41.440576      41.440576      82.881152          16040 
    146000   3570.6051      594275.49      1021.2769      594498.73      592855.53      595472.22     -877.2019       2487.8499     -6637.1787      7402.5908      7993.2721      15395.863      142658.95      41.47213       41.47213       82.94426           16040 
    147000   3615.905       601886.39      1028.7876      599891.56      602437.19      603330.41      1485.0631      50.324943      2020.0148      7496.5068      7996.7282      15493.235      142413.03      41.448286      41.448286      82.896571          16040 
    148000   3593.4587      604018.52      1036.3         604923.22      603981.91      603150.44     -3842.1549      2900.7334      2559.6612      7449.9711      8043.7517      15493.723      142331.59      41.440384      41.440384      82.880768          16040 
    149000   3630.2426      595250.7       1043.8133      593730.59      596772.61      595248.9      -521.36426      5244.4529      770.91211      7526.2315      7900.0174      15426.249      142656.28      41.471872      41.471872      82.943743          16040 
    150000   3608.5225      598295.88      1051.3243      596394.63      599500.61      598992.41     -4412.4734      245.64869      1517.9398      7481.2013      7954.3702      15435.571      142618.87      41.468246      41.468246      82.936492          16040 
    151000   3591.2804      601281.02      1058.8374      601876.18      600209.29      601757.58     -270.33335     -956.20966     -2167.2239      7445.4549      8027.0109      15472.466      142438.37      41.450744      41.450744      82.901488          16040 
    152000   3608.0401      603139         1066.3501      603467.73      602730.04      603219.22     -1761.7241      1988.9238     -1933.5774      7480.2013      8070.4026      15550.604      142429.71      41.449904      41.449904      82.899808          16040 
    153000   3619.7565      595461.65      1073.8655      593996.85      597865.09      594523         1354.2055     -836.22036     -5037.5694      7504.4917      7829.8157      15334.307      142678.21      41.473996      41.473996      82.947993          16040 
    154000   3619.5973      598142.59      1081.3805      595698.6       599404.1       599325.06      23.122362      2052.498      -25.205432      7504.1617      7923.4963      15427.658      142502.01      41.456917      41.456917      82.913833          16040 
    155000   3563.5711      602574.05      1088.8887      601178.38      601973.44      604570.34     -643.66807      2982.9558     -1486.44        7388.008       8075.5299      15463.538      142334.61      41.440677      41.440677      82.881354          16040 
    156000   3611.0044      598681.24      1096.4012      598880.42      599291.61      597871.7       1499.8607      2319.1721     -1396.0419      7486.3469      8075.4011      15561.748      142553.86      41.461944      41.461944      82.923889          16040 
    157000   3591.338       597589.93      1103.9161      597269.61      597882.6       597617.56      1679.5244     -847.96831     -388.77574      7445.5743      7941.0221      15386.596      142611.24      41.467507      41.467507      82.935013          16040 
    158000   3605.7969      605850.67      1111.4287      605699.67      605821.13      606031.2      -2414.7542      1305.731       1270.9894      7475.5506      8150.5351      15626.086      142277.74      41.435157      41.435157      82.870313          16040 
    159000   3625.7772      603666.77      1118.9427      603457.24      603244.45      604298.63      220.08048      2120.2415      1710.1841      7516.9739      7975.9588      15492.933      142357.09      41.442858      41.442858      82.885716          16040 
    160000   3614.7599      597982.89      1126.4565      598703.79      596342.27      598902.61     -302.93095      2925.8975      1929.3587      7494.1328      7929.0873      15423.22       142565.91      41.463113      41.463113      82.926225          16040 
    161000   3572.9981      600499.85      1133.9704      600564.82      600771.09      600163.63      422.71468     -5002.745       1517.725       7407.5521      7931.3628      15338.915      142421.21      41.44908       41.44908       82.89816           16040 
    162000   3589.8792      599913.53      1141.4851      599370.81      600252.63      600117.15     -3814.2327     -1825.5019      599.1551       7442.5501      8044.3818      15486.932      142555.7       41.462122      41.462122      82.924244          16040 
    163000   3600.8679      596194.61      1148.9988      594288.65      599021.08      595274.11     -2456.2562     -1532.3638     -836.10073      7465.3318      7909.7011      15375.033      142617.29      41.468093      41.468093      82.936186          16040 
    164000   3580.7548      605166.53      1156.513       605638.08      604617.9       605243.61      1727.2954      2456.3146      419.44906      7423.6332      8161.2613      15584.894      142313.56      41.438633      41.438633      82.877267          16040 
    165000   3624.453       596112.85      1164.0275      596328.99      597092.25      594917.32      2016.2845      118.49167     -3172.1966      7514.2284      7912.88        15427.108      142549.57      41.461528      41.461528      82.923056          16040 
    166000   3576.4932      595685.24      1171.5381      595844.11      594339.64      596871.96     -2219.0115     -1194.139       227.72008      7414.7981      7994.001       15408.799      142701.18      41.476222      41.476222      82.952443          16040 
    167000   3618.4756      603611.19      1179.0478      603701.03      604306.08      602826.46     -3002.4893      2315.2591      145.07886      7501.8361      7926.8074      15428.643      142345.91      41.441773      41.441773      82.883547          16040 
    168000   3606.4031      602478.88      1186.5583      601815.46      601738.61      603882.58      1669.9735     -960.17897      2122.6728      7476.8073      8053.6994      15530.507      142415.05      41.448482      41.448482      82.896964          16040 
    169000   3569.737       598189.79      1194.0693      598816.98      597146.17      598606.22      441.05809      314.15161     -522.88382      7400.7911      7871.2107      15272.002      142543.72      41.460961      41.460961      82.921921          16040 
    170000   3589.7379      595696.13      1201.5802      594513.62      596270.02      596304.76     -338.50947      1550.2243      2713.1452      7442.257       7968.2366      15410.494      142649.75      41.471239      41.471239      82.942478          16040 
    171000   3609.5545      604551.59      1209.0927      606405.04      602394.4       604855.31      2791.1789     -1085.2129     -66.469681      7483.3409      8128.6371      15611.978      142295.37      41.436868      41.436868      82.873737          16040 
    172000   3590.5449      597709.03      1216.6077      600297.17      596005.35      596824.57      2075.7314     -597.1961      -874.36596      7443.9301      7905.2218      15349.152      142561.03      41.462639      41.462639      82.925278          16040 
    173000   3601.9165      596211.67      1224.1189      595595.6       595849.22      597190.19     -2268.1228      4584.9384      278.8919       7467.5058      7920.0944      15387.6        142640.65      41.470356      41.470356      82.940713          16040 
    174000   3589.4618      604295.04      1231.6349      603583.09      603874.17      605427.84      1464.5595      431.32083     -406.39734      7441.6846      7914.9892      15356.674      142263.96      41.433819      41.433819      82.867638          16040 
    175000   3589.6679      600525.86      1239.1492      600632.3       599065.86      601879.42      294.99925     -1772.0478      2337.8635      7442.1119      8003.034       15445.146      142536.63      41.460274      41.460274      82.920547          16040 
    176000   3560.7144      598570.79      1246.6616      598884.9       598849.29      597978.2       3274.5113     -460.63362     -2178.0075      7382.0854      7927.6799      15309.765      142485.89      41.455353      41.455353      82.910706          16040 
    177000   3599.125       599339.06      1254.1832      599189.44      600976.37      597851.37      1099.1669     -2723.2254      3985.14        7461.7184      7953.7585      15415.477      142560.38      41.462576      41.462576      82.925152          16040 
    178000   3631.3226      604421.7       1261.6948      604648.71      604087.52      604528.85      2104.6879     -2413.6476      3542.5478      7528.4707      7978.4829      15506.954      142397.67      41.446796      41.446796      82.893592          16040 
    179000   3538.2671      594879.23      1269.2084      597521.42      592031.53      595084.72     -4290.6981     -2234.4051     -216.33067      7335.5476      7850.0598      15185.607      142594.02      41.465838      41.465838      82.931675          16040 
    180000   3597.139       601772.91      1276.7269      601545.77      601894.98      601877.98     -1398.0111     -3594.8439     -5029.2997      7457.6011      8031.18        15488.781      142427.26      41.449666      41.449666      82.899333          16040 
    181000   3651.1796      605113.67      1284.2385      605574.27      605380.46      604386.3      -1014.6716      2576.691       1435.5538      7569.6381      8012.3074      15581.946      142331.67      41.440391      41.440391      82.880783          16040 
    182000   3578.0361      596931.75      1291.7504      597631.88      596440.01      596723.36     -1323.8354      1706.8682      3982.0132      7417.9967      7849.4511      15267.448      142585.69      41.46503       41.46503       82.93006           16040 
    183000   3600.6872      599242.33      1299.2677      599501.86      598739.32      599485.8       3308.3941     -5482.2063      5808.7232      7464.9572      7994.3726      15459.33       142551.6       41.461725      41.461725      82.923451          16040 
    184000   3624.904       602017.12      1306.7804      602376.55      600379.81      603294.98      1032.8416     -1808.4521     -4195.6207      7515.1635      7912.8574      15428.021      142439.66      41.45087       41.45087       82.901739          16040 
    185000   3583.9466      602187.82      1314.2947      601361.85      604776.08      600425.53     -1637.9995      659.78019      1302.3728      7430.2505      7973.3449      15403.595      142396.63      41.446695      41.446695      82.893391          16040 
    186000   3607.6648      592054.91      1321.8038      588610.1       593712.08      593842.56      255.63689      2381.8771      318.82005      7479.4231      7796.3606      15275.784      142788.54      41.484684      41.484684      82.969369          16040 
    187000   3599.8275      599397.51      1329.3167      598156.02      599621.1       600415.4       2018.5992     -910.94431      1096.6811      7463.1748      7930.296       15393.471      142537.78      41.460385      41.460385      82.92077           16040 
    188000   3625.4023      604791.94      1336.8287      604258         603866.15      606251.67      4333.2596     -2300.8575      604.77506      7516.1966      8007.6519      15523.848      142401.79      41.447196      41.447196      82.894392          16040 
    189000   3622.4109      595508.68      1344.3393      596710.57      595466.56      594348.93      3321.4426     -1355.5006     -4590.6686      7509.9948      7859.4519      15369.447      142726.96      41.47872       41.47872       82.957439          16040 
    190000   3590.3417      597248.27      1351.8507      597533.11      597070.88      597140.81     -3781.792      -1333.8336     -2622.5616      7443.5088      7847.4518      15290.961      142535.85      41.460198      41.460198      82.920396          16040 
    191000   3575.0605      601090.92      1359.3643      601334.17      601897.99      600040.6       2013.7648      4685.1996      1320.2595      7411.8278      8070.6769      15482.505      142422.1       41.449166      41.449166      82.898332          16040 
    192000   3561.7465      601273.33      1366.8766      602258.85      600482.78      601078.35      1535.3553     -3518.5723      1497.6464      7384.2251      8030.0071      15414.232      142430.94      41.450024      41.450024      82.900048          16040 
    193000   3558.307       596663.3       1374.3898      594855.96      597483.3       597650.63     -643.61759     -2533.4919     -1754.0739      7377.0945      7981.3433      15358.438      142618.54      41.468214      41.468214      82.936429          16040 
    194000   3651.0686      600602.02      1381.8995      598148.59      601049.64      602607.84     -2205.875       2687.3826      3213.3113      7569.4081      7983.7141      15553.122      142474.11      41.454211      41.454211      82.908421          16040 
    195000   3597.3718      600662.61      1389.4138      599208.41      601013.03      601766.38      2206.3332     -3796.8761     -1825.909       7458.0836      7909.5636      15367.647      142410.72      41.448062      41.448062      82.896124          16040 
    196000   3603.8325      602189.99      1396.928       600936.31      602110.68      603522.98     -1100.4938      4097.6443      234.96753      7471.4779      8035.7023      15507.18       142465.65      41.453391      41.453391      82.906781          16040 
    197000   3586.9108      594590.65      1404.4391      594218.94      593756.08      595796.91     -1019.8285     -32.541565      2352.2747      7436.396       7898.2169      15334.613      142623.14      41.46866       41.46866       82.93732           16040 
    198000   3631.073       601078.13      1411.9511      601112.33      598877.99      603244.06      935.34652     -682.52302     -8.1725691      7527.9532      7979.8251      15507.778      142501.54      41.456871      41.456871      82.913742          16040 
    199000   3628.1687      606351.75      1419.4641      606338.88      606955.31      605761.06     -727.21336     -4406.9494      1758.5162      7521.932       7923.262       15445.194      142224.35      41.429974      41.429974      82.859947          16040 
    200000   3619.9214      593405.35      1426.9846      592982.94      595262.54      591970.58      1851.9344     -6032.4148      3547.1016      7504.8336      7791.3994      15296.233      142709.16      41.476995      41.476995      82.95399           16040 
    201000   3591.0035      598407.64      1434.4939      600267.16      599305.08      595650.68      1137.8541     -500.37113     -1810.7879      7444.8809      7989.5108      15434.392      142493.27      41.456069      41.456069      82.912138          16040 
    202000   3620.4664      604141.73      1442.0026      604504.35      605074.36      602846.48      5473.1866      1576.2673     -2238.8297      7505.9634      7978.4738      15484.437      142334.01      41.440619      41.440619      82.881238          16040 
    203000   3639.8788      600507.74      1449.5135      598845.88      601631.6       601045.75     -3398.6809      1220.8069      1648.3707      7546.2093      8006.6941      15552.903      142532.67      41.45989       41.45989       82.91978           16040 
    204000   3583.1576      594317.12      1457.0206      593872.3       594901.44      594177.63     -999.9365       2023.3903     -3257.2962      7428.6147      7841.0525      15269.667      142724.99      41.478529      41.478529      82.957058          16040 
    205000   3614.7469      607792.23      1464.531       606765.45      606238.92      610372.32      1444.2077      134.21302      3338.659       7494.1057      7995.2369      15489.343      142267.23      41.434137      41.434137      82.868274          16040 
    206000   3618.7655      602280.09      1472.0394      602597.54      602633.33      601609.4       1814.5737     -785.73263      3167.2655      7502.4372      7934.59        15437.027      142394.31      41.44647       41.44647       82.892939          16040 
    207000   3601.2907      598024.22      1479.5474      598949.54      596514.3       598608.81      3288.9379     -1555.6017      2708.582       7466.2084      7854.7324      15320.941      142594.45      41.465879      41.465879      82.931758          16040 
    208000   3623.4944      600911.15      1487.0583      602464.34      599635.22      600633.89      2325.5496      49.189024     -2923.5616      7512.2412      8046.8602      15559.101      142492.56      41.456         41.456         82.912             16040 
    209000   3621.5027      602794.03      1494.568       603149.47      602086.85      603145.75     -1227.6738      1693.8375      1420.9832      7508.1119      7891.2353      15399.347      142368.98      41.444012      41.444012      82.888024          16040 
    210000   3582.9412      591091.32      1502.0762      590213.1       589940.47      593120.4      -1692.4574      565.01788      4925.2541      7428.1661      7797.9769      15226.143      142811.67      41.486923      41.486923      82.973847          16040 
    211000   3593.4461      599682.63      1509.5852      601270.8       598031.54      599745.55      1593.8839     -1996.6917      1563.2923      7449.945       7934.0636      15384.009      142480.43      41.454824      41.454824      82.909648          16040 
    212000   3605.4117      598802.83      1517.0972      598694.01      597026.75      600687.73      26.294056     -143.47796      130.01915      7474.752       7935.228       15409.98       142497.49      41.456478      41.456478      82.912957          16040 
    213000   3632.5564      600930.41      1524.6075      600637.05      601713.24      600440.93      1442.2669     -408.44227      1051.2134      7531.0284      7989.6278      15520.656      142523.05      41.458957      41.458957      82.917913          16040 
    214000   3583.082       601992.02      1532.1188      603386.64      599102.28      603487.13      3149.0303     -722.08168     -102.69969      7428.4581      7959.085       15387.543      142437.58      41.450668      41.450668      82.901336          16040 
    215000   3590.7084      599089.3       1539.634       600733.66      599592.22      596942.02      2068.9221      27.477558     -1295.3319      7444.2691      7862.8428      15307.112      142509.29      41.457622      41.457622      82.915245          16040 
    216000   3608.8206      598603.73      1547.1508      597659.09      599224.58      598927.52      1349.2477      3399.3156      4381.3323      7481.8194      7986.8873      15468.707      142511.38      41.457825      41.457825      82.91565           16040 
    217000   3566.2612      598404.54      1554.6632      597908.19      599510.95      597794.49      946.73524      173.07281      2520.6957      7393.5851      7820.9966      15214.582      142514.05      41.458084      41.458084      82.916169          16040 
    218000   3583.7761      603279.9       1562.1749      602783.03      604595.53      602461.14      3967.7532      937.88937     -1819.5374      7429.897       7998.7696      15428.667      142315.41      41.438814      41.438814      82.877628          16040 
    219000   3633.754       605237.09      1569.6839      605348.76      606975.74      603386.77     -3214.1558      1767.4118      2326.5325      7533.5115      8003.4335      15536.945      142356.99      41.442848      41.442848      82.885697          16040 
    220000   3609.2108      595354.77      1577.197       596875.2       595867.69      593321.43     -3130.6102     -1765.2458      568.64924      7482.6282      7852.5236      15335.152      142657.04      41.471945      41.471945      82.94389           16040 
    221000   3620.5847      600606.92      1584.7095      602669.29      597793.64      601357.83     -2502.72        48.975294      204.5644       7506.2087      7945.4654      15451.674      142455.01      41.452359      41.452359      82.904717          16040 
    222000   3613.5285      600808.37      1592.2213      600079.71      599072.97      603272.43     -1677.6138      403.68231     -3066.2982      7491.5798      7931.6579      15423.238      142469.63      41.453776      41.453776      82.907553          16040 
    223000   3611.0919      599342.79      1599.7276      599392.52      598582.08      600053.76     -1404.3288      5093.3658      1243.4913      7486.5283      7955.2559      15441.784      142508.38      41.457534      41.457534      82.915068          16040 
    224000   3640.0897      601001.57      1607.2369      599724.45      601965.6       601314.67      2273.612       1368.2026     -3996.7344      7546.6466      7983.4154      15530.062      142467.43      41.453563      41.453563      82.907125          16040 
    225000   3572.4775      600121.19      1614.749       598106.77      603099.95      599156.84     -1253.3288      37.471967      3051.3962      7406.4728      7944.615       15351.088      142529.23      41.459556      41.459556      82.919113          16040 
    226000   3587.411       599879.29      1622.2581      599987.43      597709.47      601940.97     -3299.0968     -355.55229      459.79044      7437.4329      7844.8083      15282.241      142502.93      41.457006      41.457006      82.914012          16040 
    227000   3607.1679      604956.02      1629.77        603731.59      608469.33      602667.13      2354.6689      1952.2459      691.89783      7478.3931      8018.5732      15496.966      142305.93      41.437893      41.437893      82.875787          16040 
    228000   3583.8462      598151.92      1637.2824      598939.08      599522.46      595994.23      639.63401      455.87768     -1635.8113      7430.0424      7831.8659      15261.908      142559.44      41.462485      41.462485      82.92497           16040 
    229000   3590.1779      596323.75      1644.7964      596191.19      597153.76      595626.31     -280.58372     -288.53506      521.92213      7443.1692      7898.6709      15341.84       142644.96      41.470775      41.470775      82.941549          16040 
    230000   3620.5473      603294.01      1652.3121      602363.59      603388.93      604129.51     -3098.0827     -3548.198       382.10877      7506.1312      8007.2685      15513.4        142389.93      41.446045      41.446045      82.89209           16040 
    231000   3603.6341      596407.59      1659.8273      594730.82      597467.03      597024.93      765.72759      3488.5064     -1477.4029      7471.0668      7938.9216      15409.988      142614.28      41.467801      41.467801      82.935602          16040 
    232000   3581.3882      599705.66      1667.3429      599920.26      600769.72      598427         5076.6816      3424.8837     -4449.6994      7424.9464      8004.0567      15429.003      142525.96      41.459239      41.459239      82.918477          16040 
    233000   3611.4969      601011.53      1674.8575      601208.97      601626.32      600199.29      3822.8897     -5344.3834     -1152.4426      7487.368       7956.0057      15443.374      142446.03      41.451488      41.451488      82.902975          16040 
    234000   3595.1533      591369.65      1682.3699      592226.59      591103.44      590778.92     -2576.6423      790.52874      558.40883      7453.4844      7882.5522      15336.037      142800.81      41.485872      41.485872      82.971745          16040 
    235000   3612.4564      602868.75      1689.8824      602703.59      602646.8       603255.86     -346.29591      2802.4853     -1490.9132      7489.3571      8035.6993      15525.056      142424.5       41.449399      41.449399      82.898797          16040 
    236000   3596.4935      599573.35      1697.3972      598217.49      597565.82      602936.73      1916.9869      1352.2929     -5293.5081      7456.2628      7926.1614      15382.424      142462.59      41.453093      41.453093      82.906187          16040 
    237000   3591.0446      597416.86      1704.91        598617.11      597115.09      596518.38      3652.3529      5117.703      -2449.4014      7444.9661      7939.9875      15384.954      142578.65      41.464347      41.464347      82.928695          16040 
    238000   3575.372       602350.64      1712.4208      602413.3       601821         602817.63      458.91882     -3738.2933     -1662.1805      7412.4737      7915.9234      15328.397      142415.78      41.448553      41.448553      82.897106          16040 
    239000   3579.7641      598559.47      1719.9305      596625.5       598175.15      600877.75      2125.6802     -112.84053      24.449914      7421.5794      7934.0218      15355.601      142497.89      41.456517      41.456517      82.913035          16040 
    240000   3602.1409      597022.84      1727.4414      597635.35      595945.25      597487.91     -3787.556      -2076.1694      466.52317      7467.971       7928.1965      15396.167      142552.74      41.461835      41.461835      82.923671          16040 
    241000   3587.8277      602773.1       1734.9545      601741.81      603715.63      602861.87      940.97371      2408.6115      1515.1373      7438.2968      7951.5098      15389.807      142346.64      41.441844      41.441844      82.883688          16040 
    242000   3590.5876      598871.42      1742.4645      598641.62      599185.26      598787.38     -2283.714       11.17621      -387.74056      7444.0187      8014.782       15458.801      142472.92      41.454096      41.454096      82.908192          16040 
    243000   3570.5449      597981.14      1749.9737      596650.47      599557.14      597735.8       1597.6033      2217.9408     -2159.1973      7402.4662      7941.5604      15344.027      142479.67      41.45475       41.45475       82.909501          16040 
    244000   3637.9187      600789.89      1757.4858      598406.46      603795.58      600167.64     -655.32186     -4846.7501      3143.9524      7542.1456      7934.6055      15476.751      142470.5       41.453861      41.453861      82.907722          16040 
    245000   3602.7958      604624.88      1764.9973      605552.2       603595.14      604727.28      642.21988      177.75096     -1638.0368      7469.3287      8061.7669      15531.096      142349.77      41.442148      41.442148      82.884296          16040 
    246000   3596.5793      591969.84      1772.5046      593011.17      592030.16      590868.2      -1045.4927      3102.1805      2956.7773      7456.4407      7865.105       15321.546      142795.39      41.485348      41.485348      82.970695          16040 
    247000   3574.6366      603197.29      1780.0129      601376.58      603635.48      604579.81      1087.1625     -4263.7759      352.60906      7410.949       7978.8373      15389.786      142368.81      41.443995      41.443995      82.88799           16040 
    248000   3596.447       602067.38      1787.5265      599950.95      604056.59      602194.61     -4222.9855      3215.7502     -1308.3993      7456.1663      7974.5138      15430.68       142414.97      41.448474      41.448474      82.896949          16040 
    249000   3613.5706      596187.67      1795.039       596452.35      593667.27      598443.4      -2695.9773      659.31964     -3897.9476      7491.6671      7865.1978      15356.865      142643.71      41.470653      41.470653      82.941306          16040 
    250000   3570.6534      599845.47      1802.5511      599298.03      599749.12      600489.26      799.74605      1932.0402      2116.2976      7402.6909      7927.9575      15330.648      142483.15      41.455087      41.455087      82.910174          16040 
    251000   3598.2558      603683.29      1810.0634      602892.07      603847.13      604310.68      27.524008      470.01759     -512.27307      7459.9163      7986.6408      15446.557      142342.38      41.441431      41.441431      82.882862          16040 
    252000   3614.2969      598923.18      1817.5728      596256.21      600087.93      600425.39      693.29972     -344.2686      -3530.571       7493.1729      7895.763       15388.936      142530.39      41.459668      41.459668      82.919337          16040 
    253000   3598.3535      592621.36      1825.0844      592674.73      590200.04      594989.32      1922.6524     -742.48493     -847.86084      7460.119       7878.9725      15339.092      142686.18      41.474768      41.474768      82.949537          16040 
    254000   3611.467       600983.52      1832.5962      600050.29      602240.31      600659.95      69.858292      6851.9031     -1717.9522      7487.3059      7985.9241      15473.23       142473.5       41.454152      41.454152      82.908304          16040 
    255000   3611.0591      602555.64      1840.111       602746.07      602375.45      602545.41     -3559.3923      1211.0779      894.98433      7486.4603      7899.828       15386.288      142370.75      41.444184      41.444184      82.888367          16040 
    256000   3611.0109      595248.31      1847.6199      593354.81      596065.5       596324.64     -111.08922     -5395.7727      1584.384       7486.3603      7968.7802      15455.14       142677.25      41.473903      41.473903      82.947806          16040 
    257000   3591.5365      601992.79      1855.1345      603355.87      601588.33      601034.16      490.52055     -332.29654     -2387.382       7445.986       7947.5531      15393.539      142416.64      41.448636      41.448636      82.897273          16040 
    258000   3592.8293      605917.37      1862.6483      606584.04      605086.8       606081.27     -3774.8969      2864.9038     -2382.6397      7448.6661      8014.1323      15462.798      142237.39      41.43124       41.43124       82.862479          16040 
    259000   3616.7578      595361.53      1870.1652      594933.62      595491.06      595659.92      2251.2793      22.677477     -351.06643      7498.2748      7992.2046      15490.479      142682.65      41.474427      41.474427      82.948854          16040 
    260000   3604.222       599261.79      1877.678       600072.83      598934.34      598778.19      902.71458      300.46731      2231.8829      7472.2855      7884.9319      15357.217      142544.28      41.461015      41.461015      82.92203           16040 
    261000   3571.7217      601628.64      1885.1866      601021.74      603002.42      600861.77     -3841.942      -74.849208      3615.2268      7404.9058      8086.7066      15491.612      142415.46      41.448522      41.448522      82.897043          16040 
    262000   3591.5504      598609.52      1892.6956      600207.95      597690.83      597929.78      1135.1124     -2077.5736      2040.3113      7446.0147      7923.389       15369.404      142531.41      41.459768      41.459768      82.919536          16040 
    263000   3632.304       590105.93      1900.2024      593028.43      588217.17      589072.21     -174.53057      3899.2161     -4049.0427      7530.5052      7837.154       15367.659      142937.34      41.499089      41.499089      82.998178          16040 
    264000   3572.136       604032.22      1907.7105      603760.3       603936.37      604400.01     -1698.3902      2679.437       155.77634      7405.7648      8029.6245      15435.389      142343.51      41.44154       41.44154       82.88308           16040 
    265000   3605.5555      602273.03      1915.2176      600813.49      601132.76      604872.86      623.41806     -2117.7297      677.14088      7475.0501      7927.4725      15402.523      142459.33      41.452778      41.452778      82.905555          16040 
    266000   3571.6022      596347.75      1922.7253      596340.28      595735.26      596967.72     -2992.2088      1610.2136      2243.3086      7404.6582      7966.4357      15371.094      142637.41      41.470042      41.470042      82.940085          16040 
    267000   3607.3776      606322.08      1930.2321      605396.57      606822.86      606746.8      -1508.4621      1337.3654     -517.21133      7478.8277      7962.111       15440.939      142232.86      41.4308        41.4308        82.8616            16040 
    268000   3655.9837      605365.61      1937.7434      605241.83      606214.58      604640.42      79.369803      176.09873      919.44947      7579.5981      8039.6207      15619.219      142360.73      41.443212      41.443212      82.886423          16040 
    269000   3586.7158      595540.89      1945.2527      594173.41      596283.47      596165.78      1276.1578     -1344.044      -3863.2364      7435.9916      7879.5369      15315.529      142730.34      41.479047      41.479047      82.958095          16040 
    270000   3550.4882      600116.61      1952.7639      599875.17      600580.76      599893.89     -49.133279      2134.6752      1611.8855      7360.8845      7918.5343      15279.419      142382.66      41.445339      41.445339      82.890679          16040 
    271000   3628.8243      602502.11      1960.2745      602288.4       601792.82      603425.1       1487.157      -2696.9644      1659.9         7523.2911      7916.9799      15440.271      142437.91      41.4507        41.4507        82.9014            16040 
    272000   3578.8752      595444.13      1967.7874      597781.91      593508.55      595041.92     -1674.9087      959.82743     -1703.3898      7419.7365      7856.9783      15276.715      142610.24      41.46741       41.46741       82.934819          16040 
    273000   3605.7828      603084.29      1975.3006      603737.28      602091.13      603424.47      27.035718      654.70889      497.85587      7475.5214      8013.9474      15489.469      142402.53      41.447267      41.447267      82.894534          16040 
    274000   3596.015       604055.81      1982.8137      604215.54      605320.9       602630.99     -932.9984       1658.3827     -542.23007      7455.2708      7878.7471      15334.018      142284.95      41.435857      41.435857      82.871713          16040 
    275000   3594.7345      597993.33      1990.3273      594474.63      599030.71      600474.65     -221.66181      874.47173     -5283.3043      7452.616       7954.555       15407.171      142606.68      41.467064      41.467064      82.934128          16040 
    276000   3605.8526      600110.5       1997.8417      597475.99      600964.32      601891.18     -3170.1853     -1881.8567      2704.8793      7475.666       7886.214       15361.88       142467.55      41.453575      41.453575      82.907149          16040 
    277000   3552.6662      602013.07      2005.356       599432.76      603369.51      603236.94     -626.30748     -2990.7456     -1013.2681      7365.4         8074.3753      15439.775      142437.58      41.450668      41.450668      82.901335          16040 
    278000   3571.4516      598739.21      2012.8722      598678.71      599220.48      598318.43     -3086.5441      428.67944      2103.432       7404.3458      7851.0697      15255.416      142527.79      41.459416      41.459416      82.918833          16040 
    279000   3615.7826      599081.25      2020.3844      598921.84      600076.33      598245.57     -3413.7288     -3881.3907     -873.9213       7496.2531      7909.3442      15405.597      142595.44      41.465975      41.465975      82.931949          16040 
    280000   3573.7434      607236.32      2027.8991      605745.62      607614.45      608348.9      -3182.9256     -953.01686      4250.3614      7409.0973      7984.9384      15394.036      142219.8       41.429532      41.429532      82.859063          16040 
    281000   3603.1699      596375.59      2035.4101      594716.79      595063.67      599346.3       636.02765     -1753.905       2700.6361      7470.1043      7915.733       15385.837      142567.99      41.463314      41.463314      82.926629          16040 
    282000   3630.0997      597269.56      2042.923       594477.2       599479.49      597851.98      382.74658     -1013.744      -3845.893       7525.9353      7870.2921      15396.227      142637.21      41.470023      41.470023      82.940047          16040 
    283000   3601.2833      605114.55      2050.4317      606852.94      604458.91      604031.82     -1765.8302      1283.4413     -4109.0648      7466.1929      8083.37        15549.563      142332.12      41.440435      41.440435      82.88087           16040 
    284000   3544.7904      604017.59      2057.9416      601780.06      604569.67      605703.03      4208.2536      1756.0468      2891.4304      7349.0718      8027.2188      15376.291      142376.86      41.444777      41.444777      82.889554          16040 
    285000   3609.5986      592277.31      2065.4521      594070.77      592053.58      590707.58      2072.1966      161.56053      3323.3676      7483.4324      7848.6996      15332.132      142732.84      41.479289      41.479289      82.958578          16040 
    286000   3585.9581      601061.79      2072.9616      600257.34      602228.03      600699.99      4002.4244     -234.51881     -1605.6103      7434.4208      7980.5834      15415.004      142480.07      41.454789      41.454789      82.909578          16040 
[...]
   3930000   3626.8122      601804.13      6996.025       601173.37      597906.39      606332.63      61.235104     -3847.9031     -54.276377      7519.1196      15239.713      22758.833      140966.31      41.418317      41.418317      82.173243          16040 
   3931000   3621.4988      601831.75      7003.528       602277.54      599565.44      603652.28     -1731.3506      3174.1296      3348.7123      7508.104       15265.398      22773.502      140926.73      41.41444       41.41444       82.165551          16040 
   3932000   3610.3044      597339.47      7011.0269      596110.01      595792.74      600115.64     -979.24436     -1619.9739     -706.05455      7484.8955      15260.032      22744.928      141001.15      41.42173       41.42173       82.180013          16040 
   3933000   3634.1809      599544.17      7018.532       599735.97      598583.65      600312.9       1883.0628     -1757.2159     -4362.137       7534.3964      15211.124      22745.52       140997.53      41.421375      41.421375      82.179309          16040 
   3934000   3616.054       602662.62      7026.0381      607016.43      598817.01      602154.43     -283.10771      2010.1081     -3052.1823      7496.8156      15313.237      22810.053      140823.05      41.404282      41.404282      82.145397          16040 
   3935000   3606.8984      596586.34      7033.5343      595524.08      601167.15      593067.78     -1981.8485     -2686.9031     -307.20435      7477.8343      15224.049      22701.883      141111.78      41.43256       41.43256       82.201499          16040 
   3936000   3625.8521      597590.32      7041.0351      598834.24      596977.82      596958.91     -2096.1914     -2158.3344     -3865.872       7517.1291      15218.606      22735.736      141020.48      41.423622      41.423622      82.183767          16040 
   3937000   3600.8385      602749.56      7048.536       602278.68      601832.26      604137.73     -4188.6208      438.73936     -3628.611       7465.2708      15298.19       22763.461      140944.34      41.416166      41.416166      82.168974          16040 
   3938000   3627.954       609493.23      7056.0269      612420.66      607590.16      608468.85     -4469.1013      970.40328      140.40368      7521.4868      15386.261      22907.748      140557.86      41.378275      41.378275      82.093801          16040 
   3939000   3611.2155      602272.68      7063.5254      601424.56      604165.2       601228.28      1138.0735      1548.1979     -2009.6778      7486.7844      15292.335      22779.12       140899.88      41.41181       41.41181       82.160333          16040 
   3940000   3614.1028      596535.39      7071.0173      594260.86      594110.23      601235.07     -2055.5952      1027.0395      1991.4118      7492.7705      15217.321      22710.092      141081.74      41.42962       41.42962       82.195667          16040 
   3941000   3602.5931      604309.12      7078.5109      603987.39      606263.48      602676.51     -773.4385       5694.4943     -439.94413      7468.9086      15347.727      22816.635      140797.46      41.401774      41.401774      82.140421          16040 
   3942000   3597.4358      607273.39      7085.9987      607516.12      606140.99      608163.06      1197.5347     -501.60276      1359.3262      7458.2164      15457.208      22915.424      140533.17      41.375853      41.375853      82.088994          16040 
   3943000   3607.4313      599451.85      7093.4956      597001.09      601531.06      599823.39     -4034.2019     -94.639238      6465.3759      7478.9392      15298.306      22777.245      140898.54      41.411679      41.411679      82.160074          16040 
   3944000   3592.9807      599533.14      7100.9941      601937.85      600483.11      596178.45      431.00863      3451.1752      342.07211      7448.98        15297.074      22746.054      140982.18      41.419872      41.419872      82.176327          16040 
   3945000   3579.2542      598066.83      7108.4895      596773.01      599476.31      597951.16     -5543.6978     -4656.2847     -5810.6351      7420.5222      15302.999      22723.521      141038.27      41.425364      41.425364      82.187224          16040 
   3946000   3604.4473      601792.05      7115.9866      601001.51      601036.82      603337.82      859.02696     -4712.7376     -4252.6853      7472.7527      15311.248      22784.001      140873.87      41.409262      41.409262      82.155278          16040 
   3947000   3615.6139      606682.86      7123.4958      604952.65      610009.29      605086.64      259.79729      3085.1748     -260.48338      7495.9032      15333.653      22829.556      140751.63      41.397281      41.397281      82.131507          16040 
   3948000   3614.4895      600362.56      7131.0031      603665.01      600148.18      597274.51     -1083.3666     -1700.6721     -2673.1681      7493.5722      15282.071      22775.643      140894.42      41.411275      41.411275      82.159271          16040 
   3949000   3587.1548      596841.65      7138.5127      599235.56      598078.47      593210.91     -873.6072      -3138.8774     -3067.5974      7436.9018      15297.278      22734.179      141004.24      41.422032      41.422032      82.180613          16040 
   3950000   3610.1344      602411.53      7146.0048      603813.03      601500.33      601921.24     -5685.1401     -286.81737     -5189.8902      7484.5432      15303.356      22787.899      140859.29      41.407834      41.407834      82.152443          16040 
   3951000   3614.1217      599641.41      7153.4916      601017.33      599101.29      598805.59     -2948.5844      1833.5358     -295.39346      7492.8096      15291.601      22784.41       140868.2       41.408706      41.408706      82.154175          16040 
   3952000   3588.5458      589594.68      7160.9834      590475.19      592663.01      585645.83      430.42286     -4902.9079     -764.86055      7439.7855      15157.147      22596.932      141370.2       41.457836      41.457836      82.251648          16040 
   3953000   3567.296       599554.87      7168.4715      599775.88      598356.25      600532.48      98.126356     -1187.8815     -2318.4306      7395.7305      15344.284      22740.014      140983.62      41.420013      41.420013      82.176607          16040 
   3954000   3626.3808      600672.46      7175.969       600535.98      604743.98      596737.41      3267.3069     -1978.3123      1324.6798      7518.2253      15287.585      22805.81       140807.42      41.40275       41.40275       82.142358          16040 
   3955000   3573.8212      599867.23      7183.4659      601304.21      599817.47      598480.01      2970.9594     -8267.0569     -2861.5215      7409.2585      15330.019      22739.277      140984.78      41.420126      41.420126      82.176831          16040 
   3956000   3608.0015      596418.54      7190.9479      593803.16      601271.24      594181.22     -5515.3784      2442.5454     -714.0953       7480.1212      15230.277      22710.398      141061.39      41.427627      41.427627      82.191713          16040 
   3957000   3645.6337      601161.46      7198.4437      599086.87      602594.04      601803.46      303.17277     -520.89227      5409.7257      7558.1404      15169.303      22727.443      141014.55      41.423041      41.423041      82.182615          16040 
   3958000   3609.6057      596118.25      7205.9308      597667.61      597018.15      593668.98      3022.8967      1298.6043      670.00884      7483.4471      15223.466      22706.913      141067.5       41.428225      41.428225      82.1929            16040 
   3959000   3601.9656      598946.41      7213.4231      602431.25      598733.33      595674.66     -893.44999      60.982976      8764.2719      7467.6076      15239.408      22707.016      141065.17      41.427998      41.427998      82.192449          16040 
   3960000   3574.8357      598229.02      7220.915       599745.15      597456.93      597484.97     -1901.2252      1533.5499     -4921.8078      7411.3619      15325.471      22736.833      140985.22      41.420169      41.420169      82.176918          16040 
   3961000   3579.9218      601679.4       7228.408       604515.13      598911.18      601611.88      1973.9948     -1376.0592     -2158.6445      7421.9063      15325.661      22747.567      140956.37      41.417344      41.417344      82.171311          16040 
   3962000   3628.0212      601056.54      7235.9029      600410.04      604366.95      598392.62     -175.94047      2663.9213      1701.1431      7521.6261      15285.75       22807.376      140795.94      41.401625      41.401625      82.140125          16040 
   3963000   3604.9579      600520.85      7243.3954      603978.75      601045.27      596538.54     -1910.4546     -604.90078      3075.6474      7473.8112      15275.691      22749.502      140949.64      41.416685      41.416685      82.170005          16040 
   3964000   3625.9858      599080.55      7250.889       595589.31      600532.72      601119.61     -376.12379      343.84554      1142.0128      7517.4063      15245.725      22763.132      140913.72      41.413167      41.413167      82.163024          16040 
   3965000   3586.4199      602975.4       7258.3847      601657.33      603065.55      604203.31     -2125.1591      2394.6094      1676.3907      7435.3781      15361.378      22796.756      140822.22      41.404201      41.404201      82.145236          16040 
   3966000   3626.8428      603659.54      7265.8915      602671.9       605372.25      602934.46      1011.6009     -2686.704      -580.6108       7519.1832      15262.152      22781.335      140861.87      41.408086      41.408086      82.152945          16040 
   3967000   3577.7917      599208.64      7273.3898      601154.02      600265.58      596206.3       2025.6262     -2867.8687      1679.2306      7417.4901      15321.525      22739.015      140974.6       41.419129      41.419129      82.174854          16040 
   3968000   3591.4269      600440.39      7280.8935      597934.67      599808.85      603577.65     -118.93357     -3449.0502     -1415.0659      7445.7588      15283.595      22729.354      140999.43      41.421561      41.421561      82.179678          16040 
   3969000   3582.0382      600262.99      7288.4         600371.24      602572.85      597844.89      1116.3605     -1510.5579      2624.9269      7426.294       15303.246      22729.54       140998.69      41.421489      41.421489      82.179535          16040 
   3970000   3602.5535      600184.6       7295.8994      600276.92      600338.68      599938.2      -1146.9325      5160.5603     -3214.0149      7468.8264      15275.723      22744.549      140958.72      41.417574      41.417574      82.171767          16040 
   3971000   3629.1343      599502.53      7303.4169      600821.44      602124.01      595562.14      2117.0059      544.49392      1518.2449      7523.9338      15211.977      22735.911      140980.79      41.419735      41.419735      82.176056          16040 
   3972000   3609.2658      599995.79      7310.9153      599006.96      601004.52      599975.88      235.21412      1073.9522      3349.609       7482.7424      15230.254      22712.997      141040.36      41.425569      41.425569      82.18763           16040 
   3973000   3633.3574      603399.43      7318.4187      605313.11      602329.5       602555.66      4364.3603     -8.5459463     -3613.7246      7532.6892      15293.592      22826.281      140735.23      41.395673      41.395673      82.128318          16040 
   3974000   3596.0067      603924.78      7325.9191      608289.73      598775.27      604709.33      138.94384     -108.16951     -2416.4695      7455.2535      15370.224      22825.477      140737.15      41.395862      41.395862      82.128692          16040 
   3975000   3594.5929      603624.41      7333.4207      605733.93      600603.18      604536.12      157.99577      361.40319      2545.5205      7452.3225      15275.572      22727.895      140996.77      41.4213        41.4213        82.179161          16040 
   3976000   3592.3122      600967.73      7340.9233      600621.33      602372.43      599909.43      1618.0756      1417.9838     -5106.4999      7447.5941      15271.758      22719.352      141016.61      41.423243      41.423243      82.183016          16040 
   3977000   3572.4224      599652.87      7348.4208      597234.82      601969.43      599754.35     -108.86261      27.713487     -2700.1039      7406.3584      15324.595      22730.954      140984.22      41.420071      41.420071      82.176723          16040 
   3978000   3614.0971      597776.5       7355.9334      599168.92      596930.36      597230.22     -1351.544      -5.5961574      4746.8014      7492.7587      15262.599      22755.358      140914.73      41.413265      41.413265      82.163219          16040 
   3979000   3599.7677      602103.07      7363.4348      603786.03      604273.99      598249.19     -772.65789      420.66634     -4484.4246      7463.0509      15335.818      22798.869      140799.37      41.401961      41.401961      82.140792          16040 
   3980000   3602.9008      599543.48      7370.9288      598775.47      602657.71      597197.25     -2277.4859     -5318.6874     -3346.3254      7469.5464      15277.716      22747.262      140935.61      41.41531       41.41531       82.167277          16040 
   3981000   3594.4935      599976.2       7378.428       600359.65      604117.7       595451.24      1800.7724     -1128.0251      8327.3298      7452.1163      15309.447      22761.564      140892.44      41.411081      41.411081      82.158887          16040 
   3982000   3598.833       602290.67      7385.9261      602185.28      607121.41      597565.31      2925.6024     -1102.1478     -1557.5749      7461.113       15319.821      22780.934      140841.76      41.406115      41.406115      82.149034          16040 
   3983000   3573.3715      594564.1       7393.4285      592361.48      595378.31      595952.5       445.32503     -2449.0343      2251.808       7408.3263      15303.511      22711.837      141026.63      41.424224      41.424224      82.184963          16040 
   3984000   3623.4271      601239.97      7400.93        603320.18      599543.57      600856.17      1527.2533      3341.5642      2767.636       7512.1016      15286.222      22798.323      140792.42      41.401279      41.401279      82.13944           16040 
   3985000   3591.5002      605479.21      7408.4365      605868.7       603804.87      606764.07      959.41142      4120.7275     -3693.9522      7445.9106      15361.551      22807.462      140767.61      41.398848      41.398848      82.134615          16040 
   3986000   3599.3549      603443.68      7415.9448      603655.41      602420.48      604255.14     -2446.5799     -3153.6971      8477.4503      7462.1951      15374.859      22837.054      140686.09      41.390855      41.390855      82.118758          16040 
   3987000   3601.408       604719.19      7423.444       606160.06      601767.93      606229.58      2535.9816      2292.2146      4868.7841      7466.4516      15427.216      22893.668      140534.63      41.375996      41.375996      82.089278          16040 
   3988000   3555.5804      601863.97      7430.9339      600993.15      602230.33      602368.43     -1941.5322      3616.1773     -151.19261      7371.4417      15380.452      22751.893      140912.28      41.413025      41.413025      82.162743          16040 
   3989000   3550.0876      596762.15      7438.4265      599246.61      596801.25      594238.59     -1389.0181     -2986.0551      2466.0664      7360.0539      15409.543      22769.597      140863.69      41.408265      41.408265      82.153299          16040 
   3990000   3582.8895      599776.97      7445.9215      600959.05      600908.39      597463.47      1069.9965      1600.7306     -4282.0046      7428.059       15333.657      22761.716      140883.32      41.410188      41.410188      82.157115          16040 
   3991000   3601.7967      603855.81      7453.4167      604394.4       606186.64      600986.39     -2122.5904      3693.519      -5204.3464      7467.2573      15341.059      22808.316      140758.09      41.397915      41.397915      82.132765          16040 
   3992000   3602.8788      596405.78      7460.9245      598354.46      597958.65      592904.23      363.74862     -5337.9066      2973.1447      7469.5009      15220.034      22689.535      141067.66      41.428241      41.428241      82.192931          16040 
   3993000   3598.0087      598075.43      7468.4233      601737.35      595876.07      596612.88     -5077.3541     -3726.1788      555.21799      7459.4041      15260.03       22719.434      140988.27      41.420468      41.420468      82.17751           16040 
   3994000   3555.3056      600038.6       7475.9185      602056.74      601394.54      596664.53     -3987.886       1637.4954      1815.7455      7370.8719      15387.174      22758.046      140884.27      41.410281      41.410281      82.157298          16040 
   3995000   3608.9292      596815.31      7483.4066      601305.09      594867.43      594273.43      4949.8872     -4456.5888     -930.04396      7482.0444      15198.607      22680.651      141088.88      41.430318      41.430318      82.197052          16040 
   3996000   3636.3855      598254.35      7490.8962      601237.35      594376.21      599149.49      520.13614      1637.3843      34.319794      7538.967       15188.942      22727.909      140961.79      41.417874      41.417874      82.172364          16040 
   3997000   3596.2007      598596.5       7498.379       598341.09      599516.58      597931.83      2183.9408      239.94985      1386.9262      7455.6558      15253.582      22709.237      141011.38      41.422731      41.422731      82.182             16040 
   3998000   3644.5892      607309.98      7505.8721      606202.1       609538.39      606189.46     -591.44446     -757.45497      4945.801       7555.9749      15290.217      22846.192      140645.79      41.386902      41.386902      82.110915          16040 
   3999000   3632.893       600644.87      7513.3686      601679.4       603497.23      596757.99      4654.568      -2000.9562     -3467.3936      7531.7263      15205.465      22737.191      140934.78      41.415229      41.415229      82.167116          16040 
   4000000   3607.8563      598086         7520.8709      600683.51      597300.37      596274.11     -4012.0113      1696.6022      769.18703      7479.8201      15217.804      22697.624      141039.56      41.42549       41.42549       82.187473          16040 
Loop time of 7520.87 on 8 procs for 1000000 steps with 16040 atoms

Performance: 5.744 ns/day, 4.178 hours/ns, 132.963 timesteps/s
62.0% CPU use with 1 MPI tasks x 8 OpenMP threads

MPI task timing breakdown:
Section |  min time  |  avg time  |  max time  |%varavg| %total
---------------------------------------------------------------
Pair    | 7220.4     | 7220.4     | 7220.4     |   0.0 | 96.01
Neigh   | 12.032     | 12.032     | 12.032     |   0.0 |  0.16
Comm    | 42.335     | 42.335     | 42.335     |   0.0 |  0.56
Output  | 1.4646     | 1.4646     | 1.4646     |   0.0 |  0.02
Modify  | 217.28     | 217.28     | 217.28     |   0.0 |  2.89
Other   |            | 27.33      |            |       |  0.36

Nlocal:          16040 ave       16040 max       16040 min
Histogram: 1 0 0 0 0 0 0 0 0 0
Nghost:          14237 ave       14237 max       14237 min
Histogram: 1 0 0 0 0 0 0 0 0 0
Neighs:              0 ave           0 max           0 min
Histogram: 1 0 0 0 0 0 0 0 0 0
FullNghs:  1.64553e+06 ave 1.64553e+06 max 1.64553e+06 min
Histogram: 1 0 0 0 0 0 0 0 0 0

Total # of neighbors = 1645532
Ave neighs/atom = 102.58928
Neighbor list builds = 31445
Dangerous builds = 0
Total wall time: 8:20:06
