
atom_style atomic
units metal
boundary p p p
#atom_modify sort 0 0.0
newton on

read_data data.lammps
Reading data file ...
  orthogonal box = (0 0 0) to (43.790145 43.790145 87.58029)
  1 by 1 by 1 MPI processor grid
  reading atoms ...
  16040 atoms
  read_data CPU = 0.041 seconds
# replicate 10 10 20

### interactions

pair_style flare
pair_coeff * * lmp.flare
Reading potential file lmp.flare with DATE: Thu

# compute unc all flare/std/atom L_inv_lmp.flare sparse_desc_lmp.flare
# compute MaxUnc all reduce max c_unc

mass 1 12.011000
mass 2 28.085000

thermo_style custom step temp press cpu pxx pyy pzz pxy pxz pyz ke pe etotal vol lx ly lz atoms    #c_MaxUnc
thermo 1000
timestep 0.0005
restart 100000 restart_*.dat

#################### Equilibrate at P and T_es ##############################
velocity all create $T 41928459 rot yes dist gaussian
velocity all create 3200 41928459 rot yes dist gaussian
fix mom all momentum 1000 linear 1 1 1 angular

fix 1 all npt temp $T $T $(100.0*dt) iso $P $P $(1000.0*dt)
fix 1 all npt temp 3200 $T $(100.0*dt) iso $P $P $(1000.0*dt)
fix 1 all npt temp 3200 3200 $(100.0*dt) iso $P $P $(1000.0*dt)
fix 1 all npt temp 3200 3200 0.050000000000000002776 iso $P $P $(1000.0*dt)
fix 1 all npt temp 3200 3200 0.050000000000000002776 iso 300000 $P $(1000.0*dt)
fix 1 all npt temp 3200 3200 0.050000000000000002776 iso 300000 300000 $(1000.0*dt)
fix 1 all npt temp 3200 3200 0.050000000000000002776 iso 300000 300000 0.5
dump 1 all custom 1000 1equil.bin id type x y z vx vy vz
run   10000 # report performance
Neighbor list info ...
  update every 1 steps, delay 10 steps, check yes
  max neighbors/atom: 2000, page size: 100000
  master list distance cutoff = 6
  ghost atom cutoff = 6
  binsize = 6, bins = 8 8 15
  1 neighbor lists, perpetual/occasional/extra = 1 0 0
  (1) pair flare/kk, perpetual
      attributes: full, newton on, kokkos_device
      pair build: full/bin/kk/device
      stencil: full/bin/3d
      bin: kk/device
Per MPI rank memory allocation (min/avg/max) = 16.04 | 16.04 | 16.04 Mbytes
   Step          Temp          Press           CPU            Pxx            Pyy            Pzz            Pxy            Pxz            Pyz           KinEng         PotEng         TotEng         Volume           Lx             Ly             Lz          Atoms   
         0   3200           76627.815      0              77285.378      76158.543      76439.524      1157.9361     -232.12173     -781.28355      6634.2511     -2985.8921      3648.359       167941.93      43.790145      43.790145      87.58029           16040 
      1000   3237.885       299655.51      6.4742937      297057.95      300488.02      301420.57     -130.11691      1312.2085     -300.67082      6712.7944      4760.7248      11473.519      156437.92      42.76653       42.76653       85.533061          16040 
      2000   3194.1483      299948.63      12.910455      299364.04      299551.47      300930.39      952.73115     -553.06468      1224.5713      6622.1192      4507.3821      11129.501      156215.08      42.746214      42.746214      85.492428          16040 
      3000   3174.7732      300487.77      19.346313      300197.8       300603.9       300661.63     -798.93659      836.10715      100.78935      6581.9508      4576.9588      11158.91       156265.48      42.750811      42.750811      85.501622          16040 
      4000   3233.8605      301463.67      25.780917      302481.52      301496.88      300412.62      679.40397      1688.254      -2434.263       6704.4508      4532.5869      11237.038      156256.81      42.75002       42.75002       85.50004           16040 
      5000   3217.1689      299785.04      32.214079      299393.48      299903.98      300057.67     -1103.1268      770.8721       2580.9514      6669.8457      4430.8382      11100.684      156206.87      42.745465      42.745465      85.49093           16040 
      6000   3233.8008      299981.14      38.64717       299166.84      299932.42      300844.16     -991.54709      1170.1519      821.24071      6704.3271      4512.0033      11216.33       156325.87      42.756317      42.756317      85.512633          16040 
      7000   3168.0937      300079.9       45.081905      300225.03      300820.19      299194.47     -481.40799     -478.5493       1503.6259      6568.1029      4496.1249      11064.228      156168.64      42.741977      42.741977      85.483955          16040 
      8000   3225.8154      298018.44      51.515312      296669.79      298684.98      298700.53      97.920841      1045.4371      112.30384      6687.7716      4516.8911      11204.663      156406.06      42.763627      42.763627      85.527253          16040 
      9000   3194.5354      298674.61      57.947242      300437.27      298079.48      297507.09      1660.3872      1902.474      -321.55347      6622.9219      4402.9886      11025.911      156233.04      42.747852      42.747852      85.495704          16040 
     10000   3222.1378      304529.12      64.378927      302901.32      306609.29      304076.74     -2092.9335      227.14051      1778.2736      6680.1473      4550.4858      11230.633      155998.7       42.726468      42.726468      85.452936          16040 
Loop time of 64.3789 on 8 procs for 10000 steps with 16040 atoms

Performance: 6.710 ns/day, 3.577 hours/ns, 155.330 timesteps/s
61.7% CPU use with 1 MPI tasks x 8 OpenMP threads

MPI task timing breakdown:
Section |  min time  |  avg time  |  max time  |%varavg| %total
---------------------------------------------------------------
Pair    | 61.433     | 61.433     | 61.433     |   0.0 | 95.42
Neigh   | 0.084863   | 0.084863   | 0.084863   |   0.0 |  0.13
Comm    | 0.34535    | 0.34535    | 0.34535    |   0.0 |  0.54
Output  | 0.013921   | 0.013921   | 0.013921   |   0.0 |  0.02
Modify  | 2.2477     | 2.2477     | 2.2477     |   0.0 |  3.49
Other   |            | 0.2541     |            |       |  0.39

Nlocal:          16040 ave       16040 max       16040 min
Histogram: 1 0 0 0 0 0 0 0 0 0
Nghost:          13694 ave       13694 max       13694 min
Histogram: 1 0 0 0 0 0 0 0 0 0
Neighs:              0 ave           0 max           0 min
Histogram: 1 0 0 0 0 0 0 0 0 0
FullNghs:  1.48043e+06 ave 1.48043e+06 max 1.48043e+06 min
Histogram: 1 0 0 0 0 0 0 0 0 0

Total # of neighbors = 1480428
Ave neighs/atom = 92.29601
Neighbor list builds = 274
Dangerous builds = 0
run  990000
Per MPI rank memory allocation (min/avg/max) = 16.11 | 16.11 | 16.11 Mbytes
   Step          Temp          Press           CPU            Pxx            Pyy            Pzz            Pxy            Pxz            Pyz           KinEng         PotEng         TotEng         Volume           Lx             Ly             Lz          Atoms   
     10000   3222.1378      304529.12      0              302901.32      306609.29      304076.74     -2092.9335      227.14051      1778.2736      6680.1473      4550.4858      11230.633      155998.7       42.726468      42.726468      85.452936          16040 
     11000   3237.1581      306213.44      6.4381745      306666.18      307259.52      304714.62      1626.4021      2413.1823     -439.75813      6711.2874      4478.9089      11190.196      155931.64      42.720345      42.720345      85.44069           16040 
     12000   3174.7213      301879.39      12.870867      301865.34      301200.7       302572.12      279.75329      60.880109     -337.79395      6581.8432      4529.6159      11111.459      156082.83      42.734148      42.734148      85.468296          16040 
     13000   3200.9157      298038.83      19.304268      298776.29      298788.69      296551.53     -2410.1246      1578.6912     -1119.5634      6636.1494      4483.9488      11120.098      156338.04      42.757426      42.757426      85.514852          16040 
     14000   3166.3141      297303.12      25.738823      297165.46      296682.02      298061.87      2070.6189      538.17404     -1421.578       6564.4133      4438.5818      11002.995      156333.12      42.756978      42.756978      85.513956          16040 
     15000   3207.7783      299442.92      32.173778      300199.69      298806.93      299322.14     -1543.524       2176.8404     -691.69868      6650.377       4406.5117      11056.889      156229.77      42.747553      42.747553      85.495107          16040 
     16000   3212.7497      305314.39      38.612248      305437.03      304347.03      306159.11      983.79107      3308.6656     -169.39284      6660.6839      4453.1675      11113.851      155939.7       42.721081      42.721081      85.442161          16040 
     17000   3216.3842      301318.54      45.056821      302373.82      300705.69      300876.11     -1454.7363     -1793.8534     -1488.266       6668.2188      4532.6635      11200.882      156144.04      42.739733      42.739733      85.479466          16040 
     18000   3173.5494      298569.53      51.502413      297682.45      299035.26      298990.89      427.41704     -1260.6476      956.86068      6579.4135      4435.8753      11015.289      156139.4       42.73931       42.73931       85.47862           16040 
     19000   3220.1467      295958.24      57.942178      297214.69      294431.74      296228.29     -1221.3749     -1616.2548     -620.36365      6676.0193      4427.0358      11103.055      156347.18      42.75826       42.75826       85.516519          16040 
     20000   3215.6716      299468.49      64.381666      300010.24      297108.99      301286.25     -3159.9636      245.83309     -833.47594      6666.7416      4333.7332      11000.475      156116.07      42.737181      42.737181      85.474362          16040 
     21000   3192.7669      299177.2       70.824259      299962.58      299089.69      298479.33      293.92332     -235.67461     -1102.6193      6619.2554      4501.7081      11120.964      156109.93      42.736621      42.736621      85.473242          16040 
     22000   3200.6518      300654.13      77.265876      301149.66      299579.1       301233.63     -433.73376     -1434.6664      1705.4063      6635.6023      4383.7439      11019.346      156091.12      42.734904      42.734904      85.469809          16040 
     23000   3216.8899      298275.95      83.707193      298279.52      298884.19      297664.13      296.5679       1276.8846      653.3301       6669.2672      4424.5897      11093.857      156208.55      42.745618      42.745618      85.491236          16040 
     24000   3216.5974      307582.52      90.150814      307510.58      307181.68      308055.3      -189.69407      1953.1143     -728.56115      6668.6608      4481.36        11150.021      155751.76      42.703912      42.703912      85.407823          16040 
     25000   3179.1558      302525.71      96.597027      302167.82      302955.04      302454.26     -4.4205405     -528.14993      1866.2171      6591.0369      4509.3531      11100.39       155983.51      42.725082      42.725082      85.450163          16040 
     26000   3167.5781      301634.16      103.04016      300258.92      303348.66      301294.91     -1721.0428     -579.15852     -23.292882      6567.0339      4345.1323      10912.166      156015.52      42.728003      42.728003      85.456007          16040 
     27000   3168.9323      299275.89      109.47536      299383.19      298100.81      300343.67      1900.183       2558.3558     -493.70725      6569.8414      4463.9736      11033.815      156183.64      42.743346      42.743346      85.486693          16040 
     28000   3201.87        299474.93      115.90947      300018.07      299370.85      299035.87      1513.3512      86.063887     -1217.7567      6638.128       4380.7544      11018.882      156068.74      42.732862      42.732862      85.465723          16040 
     29000   3207.5866      301700.53      122.34561      302138         301765.39      301198.19      4184.4971      280.42468      1836.4668      6649.9797      4459.6852      11109.665      156050.64      42.73121       42.73121       85.46242           16040 
     30000   3203.5266      305545.1       128.78477      305400.08      305602.82      305632.4       3051.952       3996.2058     -329.78459      6641.5624      4450.5779      11092.14       155796.22      42.707974      42.707974      85.415948          16040 
     31000   3187.7664      298351.59      135.22808      297744.72      298919.51      298390.55      1796.513      -537.65726     -216.68601      6608.8883      4456.1165      11065.005      156180.63      42.743071      42.743071      85.486142          16040 
     32000   3194.67        295626.85      141.67134      295674.02      296321.33      294885.2       357.40828      560.44562     -1319.5788      6623.201       4333.939       10957.14       156354.09      42.75889       42.75889       85.51778           16040 
     33000   3252.611       297559.42      148.11371      295940.9       298735.13      298002.25     -1422.366       580.05078      2755.2058      6743.3243      4374.2031      11117.527      156282.88      42.752397      42.752397      85.504793          16040 
     34000   3207.0974      300022.18      154.55475      300601.41      299071.75      300393.39      1530.9971      2339.3839      94.104934      6648.9654      4353.5395      11002.505      156113.98      42.736991      42.736991      85.473981          16040 
     35000   3225.7482      299884.39      160.9958       300546.69      298601.79      300504.69      19.796364     -127.20663      1790.0336      6687.6324      4429.6824      11117.315      156196.49      42.744518      42.744518      85.489037          16040 
     36000   3208.1679      299320.91      167.4307       300059.02      298284         299619.7       601.61014     -431.26085      1632.0071      6651.1848      4421.4456      11072.63       156209.84      42.745736      42.745736      85.491472          16040 
     37000   3174.2893      297459.41      173.87062      297944.83      297195.51      297237.9       2134.4014     -3199.352       2916.4609      6580.9475      4409.5408      10990.488      156244.05      42.748856      42.748856      85.497711          16040 
     38000   3184.0778      302183.96      180.32132      302223.79      301607.42      302720.66     -710.36318      1434.032       1227.6186      6601.241       4410.1138      11011.355      155929.12      42.720114      42.720114      85.440229          16040 
     39000   3195.1442      305580.77      186.84879      306523.39      304345.56      305873.37     -26.468025      1934.812       285.96917      6624.184       4534.287       11158.471      155812.63      42.709474      42.709474      85.418947          16040 
     40000   3202.1541      297571.88      193.38045      297147.09      297361.14      298207.41      1526.8582     -1988.0574      1113.281       6638.7169      4368.5181      11007.235      156198.79      42.744728      42.744728      85.489456          16040 
     41000   3219.0251      297095.11      199.91125      295417.46      298673.28      297194.57      1456.2416     -5277.1481     -384.74924      6673.694       4420.1879      11093.882      156240.76      42.748556      42.748556      85.497113          16040 
     42000   3214.2798      297110.73      206.44769      298538.65      297782.4       295011.14     -1794.6048     -606.2449      -1487.4678      6663.856       4300.666       10964.522      156247.28      42.74915       42.74915       85.498301          16040 
     43000   3207.7803      299126.61      212.97983      299108.61      297914.86      300356.37     -457.56501     -605.02104      1769.6744      6650.3812      4444.6017      11094.983      156132.38      42.738669      42.738669      85.477338          16040 
     44000   3159.964       300249.46      219.49541      299089.73      301064.73      300593.9       2855.2423     -609.40925     -1812.1066      6551.2484      4362.844       10914.092      156011.21      42.72761       42.72761       85.45522           16040 
     45000   3213.9087      300393.65      226.00542      299993.67      301041.81      300145.46     -1212.1718     -2234.5899      216.52099      6663.0866      4393.9849      11057.071      156018.8       42.728304      42.728304      85.456607          16040 
     46000   3179.0023      304277.61      232.51         303168.33      305869.03      303795.46      1466.1118     -1085.5727     -2400.4717      6590.7185      4331.0462      10921.765      155794.41      42.707809      42.707809      85.415618          16040 
     47000   3193.0746      301554.79      239.01228      301423.38      301324.34      301916.66      1039.6713      382.63491      177.21767      6619.8933      4380.0456      10999.939      156072.67      42.73322       42.73322       85.46644           16040 
     48000   3200.1463      295586.05      245.50716      294909.2       294756.05      297092.89     -272.28626      58.053121      4417.6185      6634.5543      4309.3154      10943.87       156347.33      42.758273      42.758273      85.516547          16040 
     49000   3200.2943      296874.3       252.01651      297943.88      295016.25      297662.77     -231.89818      938.11194      1314.7908      6634.8613      4418.4196      11053.281      156281.38      42.75226       42.75226       85.50452           16040 
     50000   3183.2469      302002.14      258.53339      301779.98      301324.8       302901.63      2267.7336     -651.43165      1128.8124      6599.5185      4415.1532      11014.672      155973.46      42.724164      42.724164      85.448327          16040 
     51000   3197.97        303796.45      265.04545      304493.61      303180.5       303715.23      439.46109     -186.75501      2582.9949      6630.0426      4324.2437      10954.286      155848.83      42.712781      42.712781      85.425562          16040 
     52000   3206.9136      301341.14      271.55727      300569.41      300092.14      303361.87      37.40073      -2067.2041     -1407.3036      6648.5845      4443.2499      11091.834      156064.56      42.73248       42.73248       85.464961          16040 
     53000   3190.7224      299129.45      278.06792      300907.28      298983.2       297497.86     -1367.7215     -3517.8383     -2037.697       6615.0168      4311.3865      10926.403      156120.82      42.737614      42.737614      85.475228          16040 
     54000   3143.7589      298121.07      284.57484      298294.92      296782.07      299286.23     -1305.7774     -1978.2347      883.12157      6517.6519      4362.1588      10879.811      156191.28      42.744042      42.744042      85.488085          16040 
     55000   3210.7591      297351.86      291.07665      297795.03      296303.91      297956.65     -784.24127      2264.8211      616.1078       6656.5568      4336.0694      10992.626      156209.98      42.745749      42.745749      85.491497          16040 
     56000   3172.3411      302226.78      297.58762      304130.99      301985.69      300563.66      1960.4843     -1181.3208     -3537.7796      6576.9087      4396.5833      10973.492      155970.96      42.723935      42.723935      85.447871          16040 
     57000   3181.8813      303009.08      304.09424      303149.76      304175.71      301701.77      294.73863      508.44294      1641.7583      6596.6874      4417.8616      11014.549      155895.3       42.717026      42.717026      85.434052          16040 
     58000   3199.7451      299720.57      310.60527      299284.98      299644.21      300232.53      3024.11       -70.03913      -1489.402       6633.7226      4454.0869      11087.809      156151.37      42.740402      42.740402      85.480804          16040 
     59000   3181.485       296260.41      317.12129      298062.09      294899.81      295819.34     -1632.4176      907.50279      923.36351      6595.8657      4303.6904      10899.556      156306.04      42.754509      42.754509      85.509018          16040 
     60000   3214.4349      296384.08      323.62978      297839.26      295236.28      296076.69     -1107.3606      1419.335       868.63075      6664.1776      4350.5402      11014.718      156269.72      42.751197      42.751197      85.502395          16040 
     61000   3212.2481      302774.47      330.14087      304453.33      300959.91      302910.17      705.89664     -579.35632      1814.9796      6659.6439      4355.2874      11014.931      155950.84      42.722098      42.722098      85.444196          16040 
     62000   3220.4376      303152.75      336.6515       301447.78      303540.46      304470        -1317.8949     -596.66224      1281.6087      6676.6223      4421.6355      11098.258      155946.43      42.721695      42.721695      85.443391          16040 
     63000   3155.1984      301753.3       343.16546      301164.26      302905.65      301189.98      2423.047       308.83334      1302.4537      6541.3683      4386.8973      10928.266      155985.39      42.725253      42.725253      85.450506          16040 
     64000   3206.2577      298154.66      349.67948      297115.35      299683.08      297665.55     -452.27481     -697.55103      2596.3263      6647.2246      4343.2393      10990.464      156194.53      42.74434       42.74434       85.488679          16040 
     65000   3199.9158      300551.25      356.19359      299755.92      301150.71      300747.13     -2346.8647     -1260.2518     -1005.3715      6634.0764      4298.6634      10932.74       156069.4       42.732922      42.732922      85.465844          16040 
     66000   3166.2233      298866.11      362.7109       298786.27      299755.19      298056.85      1694.6775     -494.75493     -1591.9883      6564.2251      4311.2713      10875.496      156087.61      42.734584      42.734584      85.469168          16040 
     67000   3201.0066      302164.5       369.22506      302881.61      302105.03      301506.84     -2631.9874      3625.0921     -2193.6252      6636.3379      4403.4097      11039.748      155949.24      42.721952      42.721952      85.443905          16040 
     68000   3217.0738      303637.18      375.74063      301630.5       304638.2       304642.84      360.73182     -2109.7529      166.50259      6669.6485      4343.0369      11012.685      155888.06      42.716364      42.716364      85.432729          16040 
     69000   3155.6005      300486.48      382.25582      302895.37      300112.21      298451.87     -726.90899     -1212.5209      638.0246       6542.202       4312.7543      10854.956      156011.08      42.727598      42.727598      85.455197          16040 
     70000   3204.8192      294298.25      388.77006      293163.21      294176.18      295555.34     -340.11355     -1582.4361     -1798.9357      6644.2424      4299.3074      10943.55       156377.93      42.761062      42.761062      85.522124          16040 
     71000   3177.2448      298232.1       395.28601      299084.2       297915.66      297696.44     -1221.4995     -1517.699       1185.707       6587.0749      4282.5448      10869.62       156112.64      42.736868      42.736868      85.473737          16040 
     72000   3219.3394      300207.58      401.80162      299653.48      300667.81      300301.46     -474.79356      689.80218      1442.7288      6674.3456      4356.3584      11030.704      156006.01      42.727136      42.727136      85.454272          16040 
     73000   3227.3397      300562.33      408.31382      302524.75      298110.31      301051.93      369.37528      2738.5066      238.21797      6690.9318      4367.9948      11058.927      156094.05      42.735171      42.735171      85.470343          16040 
     74000   3190.4596      297994.62      414.83064      297770.83      298131.45      298081.59      1825.9927      497.36178      1819.6157      6614.472       4323.5789      10938.051      156145.57      42.739873      42.739873      85.479746          16040 
     75000   3188.895       297957.76      421.34404      297435.72      298066.75      298370.82     -631.3232      -1767.2262      1253.1066      6611.2281      4271.0115      10882.24       156165.83      42.741721      42.741721      85.483443          16040 
     76000   3223.9292      295237.78      427.85846      296075.68      293520.42      296117.23      646.07712      538.43364     -719.59415      6683.8611      4302.9061      10986.767      156294.78      42.753482      42.753482      85.506963          16040 
     77000   3175.9679      302334.41      434.37387      300909.17      302013.53      304080.54      2189.0683     -2288.2063      1779.7511      6584.4276      4337.3446      10921.772      155892.33      42.716755      42.716755      85.43351           16040 
     78000   3183.8499      302390.42      440.88729      301086.73      304439.18      301645.36      444.67982     -58.128586     -320.96927      6600.7687      4346.593       10947.362      155873.02      42.714991      42.714991      85.429981          16040 
     79000   3221.3776      301370.45      447.39858      302565.43      299692.97      301852.96      765.95517      538.75141      1213.4855      6678.5712      4359.3229      11037.894      155970.81      42.723921      42.723921      85.447843          16040 
     80000   3178.1833      299335.98      453.90646      299897.31      298800.55      299310.09      385.72132     -407.79349     -2186.2908      6589.0205      4315.7729      10904.793      156065.97      42.732609      42.732609      85.465218          16040 
     81000   3206.1148      294357.19      460.41235      293110.67      296098.05      293862.84     -242.15945     -695.17789      903.89217      6646.9283      4267.3245      10914.253      156329.46      42.756644      42.756644      85.513287          16040 
     82000   3176.5413      301740.45      466.91963      300514.07      303017.06      301690.24     -1133.4414     -174.50393      2666.8058      6585.6165      4269.6905      10855.307      155892.41      42.716762      42.716762      85.433525          16040 
     83000   3205.1615      304802.49      473.42727      304042.8       305629.38      304735.27     -1012.6101     -178.93741     -679.8694       6644.9519      4376.4367      11021.389      155764.14      42.705042      42.705042      85.410085          16040 
     84000   3177.566       303075.96      479.93442      302563.67      303199.87      303464.34     -2243.13       -429.54884      1866.2021      6587.7409      4397.4136      10985.154      155847.51      42.712661      42.712661      85.425322          16040 
     85000   3207.0212      300671.72      486.44354      300406.68      301213.39      300395.09      147.50858     -2376.576       655.69497      6648.8074      4300.5297      10949.337      156051.6       42.731297      42.731297      85.462594          16040 
     86000   3212.221       298623.2       492.95473      300194.77      298597.61      297077.23     -2306.764       1706.7658      237.64857      6659.5878      4365.7881      11025.376      156171.14      42.742205      42.742205      85.48441           16040 
     87000   3167.2387      301662.37      499.45886      301648.57      302101.42      301237.13     -951.61386      1762.8666      1727.3204      6566.3303      4339.6121      10905.942      155882.26      42.715835      42.715835      85.431669          16040 
     88000   3212.8635      302524.78      505.96814      302228.73      301755.11      303590.49     -402.41937     -1868.7588     -1484.4512      6660.9198      4363.0053      11023.925      155870.22      42.714735      42.714735      85.42947           16040 
     89000   3192.9631      295288.45      512.47217      295371.44      294580.22      295913.7       475.33417     -651.26482     -989.39236      6619.6621      4309.3813      10929.043      156276.31      42.751798      42.751798      85.503596          16040 
     90000   3153.6325      298644.62      518.98081      296954.6       298615.21      300364.04      274.02542     -1760.7379     -1638.5709      6538.1219      4245.8207      10783.943      156073.27      42.733275      42.733275      85.46655           16040 
     91000   3196.3002      300747.53      525.4908       301412.5       299626.77      301203.31      221.8168      -1469.6755     -889.57471      6626.5806      4362.6268      10989.207      155981.16      42.724867      42.724867      85.449734          16040 
     92000   3209.0187      302485.57      531.99994      302338.47      303606.64      301511.59      1324.2035      1080.1098     -828.12668      6652.9487      4237.5813      10890.53       155865.75      42.714326      42.714326      85.428653          16040 
     93000   3228.7843      300854.56      538.51196      301953.49      300647.06      299963.14     -81.431947      2486.5534      2886.6646      6693.9269      4294.6945      10988.621      156019.35      42.728354      42.728354      85.456707          16040 
     94000   3202.1393      300456.54      545.02317      300279.24      299530.72      301559.65     -2066.1892      1193.522      -1797.6359      6638.6862      4228.6918      10867.378      155997.96      42.726401      42.726401      85.452801          16040 
     95000   3214.5799      294989.78      551.533        294430.99      294397.94      296140.43     -633.31028      1187.8688      1176.7023      6664.4781      4247.5047      10911.983      156309.95      42.754865      42.754865      85.509731          16040 
     96000   3202.395       295986.05      558.04524      297161.78      295180.78      295615.58      673.18625     -35.787768      1296.5034      6639.2165      4319.8676      10959.084      156225.76      42.747188      42.747188      85.494375          16040 
     97000   3228.7535      302756.89      564.55625      303159.36      303547.63      301563.67     -263.26285      851.78557      326.99708      6693.8629      4295.3179      10989.181      155911.15      42.718473      42.718473      85.436947          16040 
     98000   3194.1183      301960.73      571.06822      302812.64      301326.67      301742.87      1112.3627     -1712.5496     -2788.6945      6622.0572      4280.2523      10902.309      155909.13      42.71829       42.71829       85.436579          16040 
     99000   3214.1989      301809.16      577.5818       301480.6       302671.09      301275.8       415.34579     -1843.3573      1664.4671      6663.6882      4332.58        10996.268      156040.6       42.730293      42.730293      85.460587          16040 
    100000   3207.2838      294435.77      584.09587      293904.96      295692.75      293709.61     -2272.8992     -800.74808      1097.1276      6649.3518      4187.7791      10837.131      156315.19      42.755343      42.755343      85.510686          16040 
    101000   3220.2334      296930.21      590.6021       296432.62      297712.36      296645.64      1963.6737     -1631.2651      315.4565       6676.1991      4311.9883      10988.187      156265.6       42.750822      42.750822      85.501643          16040 
    102000   3193.221       301080.22      597.11207      300658.8       300555.5       302026.37     -1605.401       1536.3908     -1270.7834      6620.1968      4297.9616      10918.158      155990.68      42.725736      42.725736      85.451472          16040 
    103000   3222.847       298378.27      603.62189      299367.09      299047.1       296720.63      1794.1634     -685.24413      1128.4629      6681.6175      4442.7079      11124.325      156178.84      42.742908      42.742908      85.485817          16040 
    104000   3198.1497      301325.71      610.13142      301262.59      301071.49      301643.05      638.12097      1557.3211     -2558.5318      6630.4151      4252.7654      10883.18       155974.68      42.724275      42.724275      85.44855           16040 
    105000   3241.7168      305418.89      616.64353      304966.84      307730.99      303558.83      362.6425       956.86048      1387.8358      6720.7384      4402.1426      11122.881      155759.38      42.704608      42.704608      85.409216          16040 
    106000   3192.5962      305466.28      623.15703      305829.12      305907.26      304662.45     -3562.0062     -1006.5656     -2648.9364      6618.9016      4384.0183      11002.92       155713.22      42.700389      42.700389      85.400777          16040 
    107000   3264.492       298048.56      629.66956      298121.67      297268.05      298755.97     -2218.1282     -2071.905       931.91585      6767.956       4244.5051      11012.461      156210.28      42.745776      42.745776      85.491552          16040 
    108000   3196.2166      299496.99      636.18112      298378.18      300125.02      299987.77     -747.6955      -1473.4701      130.66406      6626.4073      4256.0495      10882.457      156060.53      42.732112      42.732112      85.464224          16040 
    109000   3240.8065      299579.46      642.69396      299012.51      298570.96      301154.92     -3903.9736      212.29767     -805.66566      6718.8512      4293.4126      11012.264      156114.53      42.737041      42.737041      85.474081          16040 
    110000   3211.3787      302384.62      649.20852      301986.24      303167.17      302000.46     -2582.2557      1545.8487     -1412.419       6657.8415      4261.3693      10919.211      155921.76      42.719443      42.719443      85.438886          16040 
    111000   3233.2423      295209.21      655.72349      296603.57      294158.16      294865.91      56.919446      1238.0946     -1659.6459      6703.1691      4205.5913      10908.76       156315.82      42.7554        42.7554        85.5108            16040 
    112000   3162           296296.02      662.23509      296370.82      296736.35      295780.89      2758.9615      2723.3946      1270.368       6555.4694      4250.0604      10805.53       156198.66      42.744716      42.744716      85.489433          16040 
    113000   3210.9693      298492.25      668.74884      297782.84      298716.36      298977.55     -2275.0848      1435.8854      164.63712      6656.9927      4306.0885      10963.081      156089.14      42.734723      42.734723      85.469446          16040 
    114000   3200.2236      303970.25      675.26439      304158.81      304333.95      303417.99     -590.55586     -1710.7034     -2060.8717      6634.7146      4347.8875      10982.602      155861.33      42.713923      42.713923      85.427846          16040 
    115000   3180.1539      300412.65      681.7757       299899.76      300478.04      300860.16     -1580.6769      384.29434     -258.37213      6593.1061      4326.4794      10919.585      155987.12      42.725411      42.725411      85.450821          16040 
    116000   3230.2503      299091.81      688.28712      299156.87      299211.91      298906.66     -1211.7313     -1110.8109     -76.101639      6696.9661      4292.0352      10989.001      156058.95      42.731968      42.731968      85.463936          16040 
    117000   3181.5598      299922.96      694.80074      300953.37      299189.61      299625.92      708.86623      695.0742      -192.80644      6596.0208      4244.4456      10840.466      156045.48      42.730739      42.730739      85.461477          16040 
    118000   3180.3231      295914.39      701.31319      294723.37      294981.48      298038.33      1146.9764     -3355.9388     -1392.5005      6593.4569      4338.0333      10931.49       156273.25      42.751519      42.751519      85.503037          16040 
    119000   3202.6722      300699.63      707.82741      301440.67      300237.07      300421.16      3863.9959      1375.5853      1079.7752      6639.791       4282.1977      10921.989      155988.1       42.7255        42.7255        85.451             16040 
    120000   3207.6085      302931.64      714.34295      302830.72      303959.29      302004.92     -1710.2212      792.7323      -396.05913      6650.0251      4357.3795      11007.405      155837.07      42.711707      42.711707      85.423413          16040 
    121000   3191.3887      300909.77      720.85866      300811.58      301651.82      300265.92     -1944.186      -376.78771     -179.83151      6616.3981      4316.5902      10932.988      155919.86      42.719269      42.719269      85.438538          16040 
    122000   3230.25        295978.84      727.37302      294699.52      296438.27      296798.72     -1855.9797      2009.2436     -932.24455      6696.9654      4273.4613      10970.427      156249.39      42.749343      42.749343      85.498686          16040 
    123000   3166.4139      299107.78      733.88757      299252.61      298986.5       299084.22      2033.5371      1010.2827      1006.6514      6564.6203      4309.9144      10874.535      156059.37      42.732007      42.732007      85.464014          16040 
    124000   3197.2155      303174.25      740.39883      304307.41      302786.72      302428.62     -250.19523      2540.0153     -1505.7724      6628.4782      4348.4854      10976.964      155931.24      42.720308      42.720308      85.440616          16040 
    125000   3226.0306      302935.64      746.91249      301976.05      303496.81      303334.05      3148.9127     -1899.8477     -2672.2904      6688.2177      4289.179       10977.397      155835.8       42.71159       42.71159       85.423181          16040 
    126000   3188.3106      300775.7       753.42631      300937.35      300698.78      300690.97      531.45165     -3348.6979      1918.6806      6610.0167      4257.8159      10867.833      155921.92      42.719458      42.719458      85.438915          16040 
    127000   3178.2216      294747.17      759.93961      295137.26      294343.74      294760.5      -1236.5471     -1187.9379     -1861.5404      6589.1         4247.9275      10837.028      156213.03      42.746027      42.746027      85.492054          16040 
    128000   3231.5771      299053.31      766.45466      299823.84      298842.39      298493.7      -681.87331     -3070.7248     -2585.2443      6699.7169      4351.0271      11050.744      156133.57      42.738778      42.738778      85.477556          16040 
    129000   3201.0902      308799.41      772.96589      308808.17      308626.87      308963.19     -1323.3948      1825.0054     -2890.9638      6636.5114      4334.1788      10970.69       155593.43      42.689436      42.689436      85.378872          16040 
    130000   3226.3615      303739.71      779.4801       305254.49      301770.75      304193.89     -2724.0279      1544.8405     -1699.8507      6688.9038      4328.3167      11017.22       155878.64      42.715505      42.715505      85.431009          16040 
    131000   3204.2715      300389.09      785.99164      300911.11      299617.21      300638.96      1804.4794      549.92035      316.86763      6643.1068      4234.7328      10877.84       155994.93      42.726124      42.726124      85.452247          16040 
    132000   3190.3134      297262.8       792.50468      295524.08      298392.66      297871.67      707.65604      129.8876      -1686.5444      6614.1689      4378.0018      10992.171      156188.73      42.74381       42.74381       85.487621          16040 
    133000   3199.0518      299093.57      799.01773      299648.53      297964.55      299667.63     -1191.4735     -1505.1774      417.743        6632.2852      4265.3666      10897.652      155985.08      42.725224      42.725224      85.450449          16040 
    134000   3218.1629      299091.25      805.52981      300053.08      298708.53      298512.13      503.5152       1078.9357      1565.5512      6671.9065      4347.6197      11019.526      156156.96      42.740912      42.740912      85.481824          16040 
    135000   3192.161       299816.65      812.04135      299814.98      300463.48      299171.48      309.5281       832.51363     -553.68035      6617.9992      4317.1773      10935.177      156092.52      42.735032      42.735032      85.470064          16040 
    136000   3158.9976      298993.99      818.55554      298164.72      300745.29      298071.97      2620.4784      2999.5801     -20.338605      6549.2447      4249.0111      10798.256      156039.25      42.73017       42.73017       85.46034           16040 
    137000   3190.1194      297398.41      825.06839      298133.54      296448.18      297613.51      85.785845      2493.0843     -1442.3022      6613.7666      4270.3929      10884.16       156160.99      42.74128       42.74128       85.482559          16040 
    138000   3205.3077      298914.15      831.58025      298961.47      299401.54      298379.44      1147.1983     -1851.2948      2498.8099      6645.2551      4352.3402      10997.595      156092.16      42.734999      42.734999      85.469997          16040 
    139000   3184.9944      305060.41      838.09191      305734.83      303521.3       305925.08      3525.6621      959.99551      2000.6073      6603.1415      4327.9911      10931.133      155710.96      42.700182      42.700182      85.400364          16040 
    140000   3215.9198      301862.07      844.6036       301849.34      302023.45      301713.4       218.0384       482.20069      1333.6548      6667.2561      4372.9016      11040.158      155951.77      42.722183      42.722183      85.444366          16040 
    141000   3191.7487      300738.11      851.11555      300913.21      301593.33      299707.78      4096.8819     -428.09138     -275.242        6617.1445      4272.4598      10889.604      155940.74      42.721176      42.721176      85.442352          16040 
    142000   3208.6014      297971.36      857.62822      297199.06      297445.73      299269.3       196.88806      504.0938       2401.0291      6652.0836      4359.6821      11011.766      156106.72      42.736328      42.736328      85.472656          16040 
    143000   3198.8729      301916.27      864.14061      301753.12      300487.11      303508.58     -612.75895      507.96688     -276.50115      6631.9143      4274.6887      10906.603      155874.93      42.715165      42.715165      85.43033           16040 
    144000   3229.3064      304412.55      870.65067      303833.73      304794.09      304609.83     -366.66739     -468.01798     -87.369887      6695.0092      4346.1768      11041.186      155757.75      42.704459      42.704459      85.408917          16040 
    145000   3193.8902      301504.63      877.1615       301775.49      302839.15      299899.24      1470.0273     -1432.4132     -195.66256      6621.5843      4256.6409      10878.225      155846.08      42.71253       42.71253       85.42506           16040 
    146000   3213.9886      296009.01      883.67094      295750.28      296072.24      296204.53     -1126.5956      295.65349     -2756.6997      6663.2523      4254.7432      10917.995      156237.33      42.748243      42.748243      85.496486          16040 
    147000   3207.6364      298459.07      890.18194      299997.94      298758.27      296620.99      198.42395     -4318.2384      1280.2274      6650.0828      4198.5882      10848.671      156102.6       42.735952      42.735952      85.471904          16040 
    148000   3197.131       299620.83      896.69211      300590.61      300177.36      298094.51      347.42941     -353.70042     -171.18196      6628.3032      4202.8025      10831.106      156007.57      42.727278      42.727278      85.454556          16040 
    149000   3202.2423      300616.36      903.19925      302014.04      299528.22      300306.82      1131.3606      3744.0132     -1515.1456      6638.8998      4276.4881      10915.388      155909.26      42.718301      42.718301      85.436602          16040 
    150000   3197.0293      300342.04      909.70048      302045.66      298802.44      300178.01     -600.40123     -1118.9064     -1726.4165      6628.0923      4347.1436      10975.236      156010.74      42.727567      42.727567      85.455134          16040 
    151000   3198.3148      299560.89      916.20684      299009.58      299809.43      299863.67     -1548.2971     -936.48026      965.83736      6630.7574      4249.939       10880.696      156095.26      42.735282      42.735282      85.470564          16040 
    152000   3222.1411      296281.93      922.7089       295868.49      297529.32      295447.99     -2300.1904      92.609527     -75.694199      6680.1541      4298.3019      10978.456      156278.23      42.751973      42.751973      85.503947          16040 
    153000   3188.8229      296927.55      929.21424      297488.91      297318.31      295975.45      1172.3124      321.26485      3497.265       6611.0787      4266.5107      10877.589      156153.23      42.740572      42.740572      85.481143          16040 
    154000   3162.5135      301822.56      935.71882      300658.94      302196.36      302612.38     -950.06326      358.54354     -453.40102      6556.534       4302.6306      10859.165      155936.87      42.720822      42.720822      85.441645          16040 
    155000   3214.934       300756.5       942.21793      300650.23      300339.42      301279.85     -2252.8534     -1578.1742     -1290.107       6665.2123      4292.212       10957.424      155935.33      42.720682      42.720682      85.441364          16040 
    156000   3209.5319      306230.65      948.7207       305405.25      306387.61      306899.07      351.50252      322.87247     -2974.8792      6654.0127      4333.3023      10987.315      155668.07      42.696261      42.696261      85.392522          16040 
    157000   3209.1664      302751.45      955.22664      302894.77      303810.01      301549.57      2227.1971      2398.7327     -25.638506      6653.2549      4344.7396      10997.995      155948.14      42.721851      42.721851      85.443702          16040 
    158000   3166.9096      297665.41      961.73311      297471.15      299172.43      296352.63      552.80228      122.48262      211.06825      6565.6479      4245.5515      10811.199      156074.67      42.733402      42.733402      85.466805          16040 
    159000   3183.5024      295779.98      968.23927      296597.3       293062.92      297679.71     -1752.6658     -751.95239     -2030.9789      6600.0483      4281.9048      10881.953      156231.2       42.747684      42.747684      85.495367          16040 
    160000   3188.6784      301761.03      974.74671      301741.17      301763.76      301778.16      593.82302      2731.0374      1336.1754      6610.7792      4250.1499      10860.929      155923.69      42.719618      42.719618      85.439237          16040 
    161000   3206.8127      304757.49      981.25519      305692.34      304568.56      304011.58      408.86178      2380.1338      1896.0865      6648.3751      4325.6538      10974.029      155815.9       42.709773      42.709773      85.419545          16040 
    162000   3225.2816      300967.85      987.76398      300711.21      301385.06      300807.27     -252.94497     -593.57668      1067.7881      6686.665       4232.8451      10919.51       155954.6       42.722442      42.722442      85.444883          16040 
    163000   3221.9389      299234.15      994.273        299983.76      299607.37      298111.32     -2247.3023      624.73432      300.35623      6679.7349      4258.6438      10938.379      156022.15      42.728609      42.728609      85.457219          16040 
    164000   3182.3003      298309.03      1000.7822      299009.84      297705.69      298211.55     -1541.43       -791.36109      3147.491       6597.5561      4242.4411      10839.997      156104.87      42.736159      42.736159      85.472319          16040 
    165000   3206.0556      299886.35      1007.2911      299072.06      301293.38      299293.6       2349.8151      1392.5938     -1040.8505      6646.8055      4246.8472      10893.653      155972.11      42.724041      42.724041      85.448081          16040 
    166000   3210.8278      302928.59      1013.8002      303997.11      303272.23      301516.44     -1955.8314      724.89581     -1673.6669      6656.6993      4347.107       11003.806      155881.3       42.715747      42.715747      85.431495          16040 
    167000   3161.4405      307232.01      1020.315       307373.75      306381.12      307941.16      2166.4788      775.89957     -2615.8376      6554.3093      4410.8465      10965.156      155625.59      42.692377      42.692377      85.384755          16040 
    168000   3197.6794      298817.56      1026.8233      298844.56      299599.29      298008.85     -481.50013     -749.87535      1671.4574      6629.44        4262.2183      10891.658      156062.31      42.732275      42.732275      85.46455           16040 
    169000   3224.0345      296714.02      1033.3295      298316.34      296107.83      295717.9      -550.48469     -529.33687     -3443.7596      6684.0794      4256.7896      10940.869      156251.89      42.749571      42.749571      85.499141          16040 
    170000   3189.5877      299621.92      1039.8369      299871.51      299208.95      299785.28      130.0498       228.81507     -797.69321      6612.6644      4218.4826      10831.147      155986.34      42.72534       42.72534       85.45068           16040 
    171000   3230.1379      301001.6       1046.3449      300999.74      302339.5       299665.58     -929.91788     -756.09856     -2416.5907      6696.733       4313.2598      11009.993      155949         42.72193       42.72193       85.443861          16040 
    172000   3202.9074      300352.12      1052.8515      300366.09      299664.76      301025.5      -726.01785     -891.9821      -673.97681      6640.2787      4214.067       10854.346      155932.57      42.72043       42.72043       85.440861          16040 
    173000   3224.7522      295867.57      1059.3586      294584.97      296510.96      296506.79     -74.638016     -121.2806       1635.1224      6685.5673      4251.9878      10937.555      156236.76      42.748192      42.748192      85.496383          16040 
    174000   3194.2439      294856.29      1065.867       295451.46      295104.48      294012.94      3377.1127      1028.9483      1565.6709      6622.3174      4229.7437      10852.061      156202.85      42.745098      42.745098      85.490196          16040 
    175000   3218.4774      298519.18      1072.3758      299151.52      297534.49      298871.52      2627.5027     -944.30866      1083.5673      6672.5586      4294.3377      10966.896      156088.95      42.734706      42.734706      85.469412          16040 
    176000   3182.1663      300853.27      1078.8832      300897.79      301400.21      300261.81      80.444404      2730.8184      17.56874       6597.2781      4291.2965      10888.575      155896.93      42.717175      42.717175      85.43435           16040 
    177000   3195.1265      304722.89      1085.3898      303562.99      305567.11      305038.56     -171.47418      949.33965      1008.1106      6624.1472      4364.9426      10989.09       155840.2       42.711992      42.711992      85.423985          16040 
    178000   3195.9024      304299.5       1091.8977      305459.89      303809.35      303629.25      2859.4355      1863.1085     -1831.9424      6625.7559      4356.5375      10982.293      155870.65      42.714774      42.714774      85.429549          16040 
    179000   3200.0142      297386.12      1098.4081      297767.34      296875.25      297515.78      322.90896     -1952.3349     -227.61584      6634.2806      4300.1071      10934.388      156170.49      42.742146      42.742146      85.484292          16040 
    180000   3209.7661      295753.85      1104.9177      296258.24      295814.34      295188.97      931.06558     -417.83821     -2212.507       6654.4983      4248.3084      10902.807      156252.72      42.749646      42.749646      85.499293          16040 
    181000   3173.1812      297185.76      1111.4268      298277.23      297209.27      296070.78     -1252.6726     -200.52612     -2790.8669      6578.6503      4338.0041      10916.654      156122.11      42.737732      42.737732      85.475465          16040 
    182000   3185.1828      301715.88      1117.9353      302115.97      302328.33      300703.36     -513.40649     -1461.6327      2527.8425      6603.5321      4226.4329      10829.965      155880.38      42.715663      42.715663      85.431326          16040 
    183000   3208.7664      302328.68      1124.445       304183.33      302600.95      300201.77     -540.49914      3178.7871     -795.37394      6652.4257      4297.6608      10950.087      155881.83      42.715796      42.715796      85.431591          16040 
    184000   3188.2064      297613.29      1130.9548      299002.51      297638.18      296199.2      -915.95188      1299.4276     -209.56287      6609.8005      4205.8067      10815.607      156075.72      42.733498      42.733498      85.466997          16040 
    185000   3194.8791      295119.74      1137.465       294567.93      296236.71      294554.56     -2328.9274      1272.0224      973.73914      6623.6344      4253.1369      10876.771      156305.28      42.754439      42.754439      85.508879          16040 
    186000   3201.0197      300587.56      1143.9751      301067.53      299632.6       301062.55     -1519.4779     -3306.8022      1564.2125      6636.3652      4194.8704      10831.236      155958.98      42.722842      42.722842      85.445683          16040 
    187000   3188.5739      303573.56      1150.4877      303979.56      303931.48      302809.65     -122.04865      689.69759     -807.51447      6610.5625      4332.256       10942.819      155730.06      42.701928      42.701928      85.403857          16040 
    188000   3185.8805      303530.94      1156.9979      303471.88      304427.12      302693.84     -709.5894       592.82872      2038.8169      6604.9786      4345.7395      10950.718      155752.37      42.703967      42.703967      85.407934          16040 
    189000   3205.8255      301575.82      1163.5058      302208.13      300082.06      302437.27     -1693.546       323.70861     -144.44828      6646.3285      4190.9171      10837.246      155870.23      42.714736      42.714736      85.429472          16040 
    190000   3204.1734      298777.38      1170.0157      299810.91      298929.64      297591.6      -282.88335      2445.2183     -246.19764      6642.9034      4232.1381      10875.042      156130.71      42.738517      42.738517      85.477033          16040 
    191000   3195.9143      300634.29      1176.5261      300749.68      301073.75      300079.43      828.08507      1314.5066      285.35335      6625.7805      4222.4393      10848.22       155947.7       42.721811      42.721811      85.443623          16040 
    192000   3217.6321      299510.02      1183.0368      298062.12      299360.24      301107.71      1036.5168     -927.57499      750.65581      6670.8061      4204.9867      10875.793      156013.66      42.727834      42.727834      85.455668          16040 
    193000   3186.6524      300579.64      1189.5459      300946.31      301158.4       299634.19      729.62752      811.02944      2223.153       6606.5789      4373.4999      10980.079      156037.46      42.730006      42.730006      85.460013          16040 
    194000   3222.3662      299913.42      1196.0587      300843.92      299801.01      299095.33     -2693.3566     -4155.0127      1699.2293      6680.6209      4318.8486      10999.47       156064.69      42.732492      42.732492      85.464985          16040 
    195000   3208.8507      299063.31      1202.5684      298247.91      300525.91      298416.11     -234.4695      -540.64121      165.83358      6652.6003      4203.1165      10855.717      156040.74      42.730306      42.730306      85.460613          16040 
    196000   3214.2109      294447.24      1209.0789      294157.31      294756.69      294427.71     -455.98799      1176.6998      97.581081      6663.7133      4271.4766      10935.19       156354.09      42.758889      42.758889      85.517778          16040 
    197000   3185.4713      301175.52      1215.5918      300109.5       301614.15      301802.9       1724.251       3212.1785      647.25655      6604.1301      4307.9981      10912.128      155963.76      42.723278      42.723278      85.446556          16040 
    198000   3191.881       302899.62      1222.1034      302393.68      303025.49      303279.69      3217.9302      1456.2064      1085.5058      6617.4187      4340.3381      10957.757      155809.68      42.709204      42.709204      85.418408          16040 
    199000   3218.109       302197.58      1228.6155      302760.53      300921.15      302911.07     -852.92819      1378.9091     -958.06143      6671.7947      4329.4355      11001.23       155885.59      42.716139      42.716139      85.432279          16040 
    200000   3195.9738      299872.01      1235.1318      299010.67      301014.94      299590.41     -91.857749      1100.1219     -2217.9761      6625.9039      4298.458       10924.362      155970.42      42.723886      42.723886      85.447772          16040 
    201000   3223.6367      297198.06      1241.6437      297656.2       297915.27      296022.7       1789.039       2195.3375     -2048.9449      6683.2548      4276.4816      10959.736      156196.01      42.744474      42.744474      85.488948          16040 
    202000   3221.7174      296184.77      1248.1548      295229.87      295414.72      297909.73     -538.8101       663.40709      418.11229      6679.2757      4178.2147      10857.49       156172.94      42.74237       42.74237       85.48474           16040 
    203000   3225.2885      296729.75      1254.6661      295305.07      296309.61      298574.55      233.47861     -678.94577      50.045705      6686.6793      4287.3496      10974.029      156230.43      42.747614      42.747614      85.495228          16040 
    204000   3200.3002      300276.32      1261.1777      300181.46      300979.17      299668.34      389.6175      -3540.006       1098.5883      6634.8734      4276.0009      10910.874      155968.32      42.723695      42.723695      85.447389          16040 
    205000   3193.28        306043.19      1267.6806      304956.97      307945.43      305227.16      188.39831      289.00762     -373.3644       6620.3191      4199.7328      10820.052      155572.63      42.687534      42.687534      85.375067          16040 
    206000   3197.9847      303171.93      1274.1864      302291.62      302641.47      304582.7      -2378.3378      874.81739     -152.79044      6630.0729      4307.6273      10937.7        155803.31      42.708622      42.708622      85.417244          16040 
    207000   3195.1519      299786.71      1280.693       299275.24      299765.27      300319.62      555.09241     -1227.0121      964.86093      6624.2         4337.1183      10961.318      156017.03      42.728141      42.728141      85.456283          16040 
    208000   3170.869       299144.84      1287.198       300163.3       297919.97      299351.25      975.28079      318.74444     -285.24898      6573.8566      4208.5203      10782.377      155957.09      42.722669      42.722669      85.445339          16040 
    209000   3215.9586      297886.13      1293.7037      297433.18      297855.56      298369.66      1769.8051      1095.1976     -1752.9937      6667.3366      4220.1259      10887.463      156120.27      42.737564      42.737564      85.475129          16040 
    210000   3183.6637      301055.03      1300.215       301153.69      300964.13      301047.28     -1992.7675      40.260654      1827.0649      6600.3826      4253.95        10854.333      155923.54      42.719605      42.719605      85.43921           16040 
    211000   3178.7216      301616.21      1306.7238      301739.64      302495.31      300613.68     -1377.6607     -1550.3915     -1023.7066      6590.1366      4356.9407      10947.077      155923.83      42.719631      42.719631      85.439263          16040 
    212000   3157.1772      301220.02      1313.2348      300212.08      304319.73      299128.25     -2050.7976     -1904.0024     -849.07505      6545.4707      4221.7974      10767.268      155952.5       42.72225       42.72225       85.444499          16040 
    213000   3175.0363      296038.39      1319.7417      296339.67      295304.61      296470.89      2322.8949     -1446.5289     -1159.6013      6582.4963      4284.9256      10867.422      156226.77      42.74728       42.74728       85.494559          16040 
    214000   3165.9203      297638.46      1326.2433      297719.29      296942.53      298253.55      1367.1244     -1664.5951      1085.4236      6563.5968      4223.8025      10787.399      156027.05      42.729056      42.729056      85.458112          16040 
    215000   3170.0638      303021.7       1332.7459      301613.76      302523.74      304927.6      -2236.3541      3036.8012      202.01718      6572.1873      4349.5623      10921.75       155878.8       42.715519      42.715519      85.431038          16040 
    216000   3199.236       304904.1       1339.2523      304029.48      305790.38      304892.45      108.24104      1006.5333     -1922.4659      6632.6671      4213.1549      10845.822      155684.83      42.697793      42.697793      85.395587          16040 
    217000   3230.6633      301734.21      1345.7574      300001.33      302576.8       302624.5       236.56392     -296.41291     -1533.3187      6697.8223      4256.4955      10954.318      155969.17      42.723772      42.723772      85.447544          16040 
    218000   3144.3986      301591.76      1352.2643      301935.03      299914.35      302925.89      1304.7126      1629.6294      1973.5744      6518.9781      4324.2017      10843.18       156002.55      42.72682       42.72682       85.453639          16040 
    219000   3181.2694      297964.88      1358.7724      297390.58      298840.56      297663.49      1371.5417      798.87949      67.119299      6595.4187      4274.6092      10870.028      156077.64      42.733674      42.733674      85.467347          16040 
    220000   3221.88        302252.56      1365.2803      303349.53      302151.6       301256.54     -1160.6408     -392.36618      1826.7239      6679.6129      4345.8276      11025.44       155976.47      42.724438      42.724438      85.448877          16040 
    221000   3192.9971      303885.16      1371.7913      304145.76      305152.03      302357.68     -1457.34       -3319.2525      3491.8255      6619.7327      4290.8761      10910.609      155749.78      42.70373       42.70373       85.407461          16040 
    222000   3181.9581      297253.78      1378.3051      297644.07      296644.27      297472.99      80.090898      109.44265     -1127.3699      6596.8466      4262.2232      10859.07       156061.28      42.73218       42.73218       85.464361          16040 
    223000   3190.5619      297428.07      1384.8167      297330.78      296711.03      298242.41     -895.58952      1294.5171      662.94988      6614.6839      4279.503       10894.187      156155.9       42.740816      42.740816      85.481631          16040 
    224000   3229.6454      297387.02      1391.3274      297709.07      297032.34      297419.64     -646.9871      -1217.1587     -1952.5849      6695.7121      4219.5836      10915.296      156210.35      42.745782      42.745782      85.491565          16040 
    225000   3216.2716      298067.41      1397.8397      297116.63      299816.96      297268.63      1299.8999      1032.5151     -1964.708       6667.9854      4139.0348      10807.02       156105.61      42.736227      42.736227      85.472453          16040 
    226000   3193.8114      301855.39      1404.3508      301925.58      301523.1       302117.48      2118.8227      564.29438     -2291.3586      6621.4209      4292.7289      10914.15       155937.97      42.720923      42.720923      85.441845          16040 
    227000   3181.7479      302714.48      1410.8636      302382.61      301497.14      304263.7       768.03813     -3065.3584      329.67431      6596.4109      4292.2427      10888.654      155848.63      42.712763      42.712763      85.425525          16040 
    228000   3214.6961      300498.18      1417.3768      301297.56      299965.18      300231.8      -1239.5117     -497.64361     -60.089153      6664.7191      4280.9319      10945.651      156022.85      42.728673      42.728673      85.457346          16040 
    229000   3195.3034      297683.77      1423.888       297050.59      297598.6       298402.13      143.2874      -271.27278     -255.1536       6624.5141      4175.6679      10800.182      156132.57      42.738686      42.738686      85.477372          16040 
    230000   3193.2817      296530.82      1430.4007      296838.75      296370.89      296382.83      1584.9449     -2513.6702     -741.09198      6620.3226      4285.8665      10906.189      156130.38      42.738486      42.738486      85.476973          16040 
    231000   3198.9405      299168.05      1436.9044      299599.89      298296.45      299607.82      851.47806     -1128.5961     -39.97588       6632.0546      4157.0561      10789.111      156031.96      42.729505      42.729505      85.45901           16040 
    232000   3213.1521      299889.05      1443.4095      301068.78      298201.44      300396.92     -417.99109     -3090.9351     -274.17513      6661.5182      4201.4682      10862.986      155998.24      42.726426      42.726426      85.452852          16040 
    233000   3214.345       297414.08      1449.9153      298275.55      297565.38      296401.32     -1130.938      -557.77266      1124.6991      6663.9912      4196.2689      10860.26       156046.01      42.730787      42.730787      85.461574          16040 
    234000   3184.3976      300406.67      1456.4225      299611.96      301362.4       300245.65     -2828.7595      1105.0037      451.41334      6601.9042      4238.7032      10840.607      155919.98      42.71928       42.71928       85.43856           16040 
    235000   3197.4599      298430.97      1462.9289      298334.17      298742.79      298215.95      3025.7947     -1182.6862      387.42204      6628.9849      4333.7444      10962.729      156124.43      42.737944      42.737944      85.475888          16040 
    236000   3199.4662      298793.2       1469.4372      298385.82      298673.86      299319.9      -916.59258     -1261.6029      1176.237       6633.1443      4207.4212      10840.566      156101.26      42.735829      42.735829      85.471658          16040 
    237000   3211.1851      295313.11      1475.9463      295540.05      294649.67      295749.62      453.06056     -1494.9172     -2036.5677      6657.4402      4267.02        10924.46       156267.89      42.75103       42.75103       85.50206           16040 
    238000   3215.0179      300499.42      1482.4573      298488.08      302257.16      300753.02     -156.18887      1487.25        59.098461      6665.3862      4210.6419      10876.028      155993.88      42.726028      42.726028      85.452056          16040 
    239000   3228.3632      301911.77      1488.9697      300956.39      301983.37      302795.57     -1726.1558      73.58284      -1125.627       6693.0538      4320.6646      11013.718      155883.47      42.715946      42.715946      85.431892          16040 
    240000   3189.8741      300462.98      1495.4811      302249.35      299600.8       299538.79     -983.83967     -1329.7088      1924.2635      6613.2581      4218.4624      10831.72       155890.02      42.716544      42.716544      85.433088          16040 
    241000   3169.4473      297137.34      1501.9949      298299.59      296262.44      296849.98     -1688.9031      2781.7772     -511.78283      6570.9091      4266.6135      10837.523      156138.9       42.739264      42.739264      85.478529          16040 
    242000   3192.0316      300164.21      1508.5056      299394.14      300540.44      300558.07     -34.561149     -2098.8458      1344.0191      6617.731       4258.3724      10876.103      156071.54      42.733117      42.733117      85.466234          16040 
    243000   3214.5856      298371.66      1515.0174      298903.53      299096.59      297114.86      1985.5248     -939.64285     -444.72809      6664.4901      4237.1876      10901.678      156114.9       42.737074      42.737074      85.474149          16040 
    244000   3148.9179      299783.46      1521.5288      299075         299818.92      300456.47     -711.34482     -1255.3059     -1509.627       6528.3475      4238.5324      10766.88       155874.72      42.715146      42.715146      85.430293          16040 
    245000   3190.9945      302366.45      1528.0397      299783.01      303198.82      304117.52      491.0897      -2328.6101      2471.954       6615.5809      4310.0768      10925.658      155872.74      42.714965      42.714965      85.42993           16040 
    246000   3230.3875      300379.63      1534.5505      300251.8       300967.49      299919.59     -4951.0896     -1353.3798      280.67699      6697.2506      4286.2354      10983.486      156035.86      42.72986       42.72986       85.459721          16040 
    247000   3179.8151      294162.63      1541.0635      295186.75      293083.46      294217.67     -301.3062      -545.15654      748.95533      6592.4037      4190.092       10782.496      156229.63      42.74754       42.74754       85.495081          16040 
    248000   3190.7636      298717.74      1547.5755      300024.25      298598.02      297530.93     -120.83016     -475.80289     -208.79975      6615.1022      4282.1146      10897.217      156107.07      42.73636       42.73636       85.472719          16040 
    249000   3212.4708      301432.58      1554.0887      300478.5       302085.04      301734.2      -459.96838     -2840.3002     -344.47729      6660.1055      4243.0942      10903.2        155855.39      42.713381      42.713381      85.426762          16040 
    250000   3154.442       302859.98      1560.6011      302277.89      302657.42      303644.65     -2933.9278      689.30554     -1835.636       6539.8         4223.5428      10763.343      155745.9       42.703376      42.703376      85.406752          16040 
    251000   3217.7462      297765.08      1567.1125      297399.86      298507.77      297387.61     -897.55612     -1819.4586     -2022.8062      6671.0425      4170.6856      10841.728      156173.07      42.742381      42.742381      85.484763          16040 
    252000   3233.8121      291815.74      1573.6225      291251.31      291750.83      292445.06      1934.9692     -577.83838     -902.47573      6704.3504      4239.9535      10944.304      156517.48      42.773778      42.773778      85.547557          16040 
    253000   3150.978       299447.41      1580.1346      299414.3       298861.42      300066.51      753.1626      -234.01494      809.84723      6532.6185      4294.8785      10827.497      156038.89      42.730137      42.730137      85.460274          16040 
    254000   3211.997       301665.16      1586.645       300823.62      301799.82      302372.04      609.50103      2260.5535      1605.5063      6659.1232      4316.8696      10975.993      155914.18      42.71875       42.71875       85.4375            16040 
    255000   3183.7357      300198.15      1593.1583      301088.02      299944.08      299562.35     -1396.4353     -139.94088     -2311.0583      6600.5319      4222.2285      10822.76       155953.3       42.722323      42.722323      85.444646          16040 
    256000   3227.1052      297669.29      1599.6701      299322.44      297318.41      296367.03     -1906.5675      474.40433      129.43238      6690.4458      4281.4585      10971.904      156156.97      42.740913      42.740913      85.481826          16040 
    257000   3206.9121      295715.37      1606.1798      295618.54      295221.09      296306.49      304.70834     -816.91996     -398.97409      6648.5814      4170.1206      10818.702      156218.9       42.746562      42.746562      85.493125          16040 
    258000   3234.471       300063.96      1612.6809      299710.68      300825.37      299655.83     -612.59561     -3217.2907      1945.7972      6705.7164      4274.8818      10980.598      156077         42.733615      42.733615      85.46723           16040 
    259000   3200.7562      304940.46      1619.1897      304579.8       305061.77      305179.82      1250.4071      692.68124      4183.2438      6635.8188      4249.4288      10885.248      155740.61      42.702893      42.702893      85.405786          16040 
    260000   3187.6821      302921.2       1625.6958      303138.44      302166.74      303458.42      321.60933      1076.3132      35.838438      6608.7137      4193.2265      10801.94       155824.26      42.710536      42.710536      85.421072          16040 
    261000   3198.0205      298285.85      1632.2011      299526.35      297314.51      298016.68      940.86992     -2111.1936      1185.2887      6630.1471      4237.293       10867.44       156115.14      42.737096      42.737096      85.474193          16040 
    262000   3186.8858      299821.21      1638.7058      299599.68      299265.99      300597.95      701.5342       604.98222      23.99815       6607.0627      4150.158       10757.221      155987.14      42.725413      42.725413      85.450826          16040 
    263000   3190.3785      302121.49      1645.2145      302671.89      301607.42      302085.15     -127.93853      385.09558     -1741.2711      6614.3037      4244.6789      10858.983      155917.81      42.719082      42.719082      85.438164          16040 
    264000   3169.3472      301941.89      1651.7242      299650.24      303755.74      302419.7       2161.1097     -1457.6002     -140.43888      6570.7015      4300.7485      10871.45       155989.11      42.725593      42.725593      85.451186          16040 
    265000   3176.7812      295994.28      1658.2369      295966.72      295839.16      296176.97      662.86258      538.05681      2871.3332      6586.1139      4230.8271      10816.941      156248.77      42.749286      42.749286      85.498572          16040 
    266000   3159.194       297582.13      1664.7483      298513         297232.11      297001.3       318.47564     -578.39621     -2172.2963      6549.652       4296.6994      10846.351      156197.59      42.744619      42.744619      85.489238          16040 
    267000   3217.9631      301934.92      1671.2597      302066.8       301066.53      302671.45      1296.1525     -733.33048     -3021.7575      6671.4922      4352.9289      11024.421      156008.38      42.727352      42.727352      85.454705          16040 
    268000   3175.8809      300846.73      1677.7718      300789.85      301378.54      300371.8       1382.6643      836.25748     -5146.6348      6584.2473      4218.0142      10802.261      155889.26      42.716474      42.716474      85.432949          16040 
    269000   3197.8673      299826.77      1684.2823      300462.12      298333.56      300684.63     -1187.4757     -120.1598      -231.54924      6629.8296      4269.0944      10898.924      155970.8       42.72392       42.72392       85.447841          16040 
    270000   3184.4846      298632.78      1690.7952      298883.56      299701.18      297313.59     -1721.8386      699.79312      488.73906      6602.0844      4281.3699      10883.454      155996.77      42.726292      42.726292      85.452583          16040 
    271000   3223.4442      297750.33      1697.308       295725.58      297987.89      299537.53      2768.4879     -1310.3687     -324.28185      6682.8557      4132.4608      10815.316      156009.03      42.727411      42.727411      85.454822          16040 
    272000   3215.3575      301403.53      1703.8195      300972.64      302634.5       300603.46      958.61523      2550.2993     -137.47525      6666.0904      4311.0099      10977.1        155987.01      42.725401      42.725401      85.450801          16040 
    273000   3204.1715      304667.59      1710.3329      304652.61      304671.37      304678.79     -234.0952      -1156.9591     -344.42439      6642.8994      4291.4998      10934.399      155717.67      42.700795      42.700795      85.40159           16040 
    274000   3203.3877      301057.52      1716.8433      301647.53      301760.05      299764.97      1659.5143     -2592.1218     -4118.8529      6641.2745      4205.1195      10846.394      155870.17      42.71473       42.71473       85.429461          16040 
    275000   3192.1933      300211.21      1723.3538      301025.02      299518.14      300090.49      1484.0518      533.77395      122.30328      6618.0663      4237.663       10855.729      155994.13      42.726051      42.726051      85.452101          16040 
    276000   3236.5103      299342.81      1729.8654      301271.11      297877.16      298880.16      622.77478      1564.1017     -1443.2399      6709.9443      4315.8784      11025.823      156064.25      42.732451      42.732451      85.464903          16040 
    277000   3201.3123      302159.29      1736.3685      303380.84      302132.28      300964.74      544.75294      1944.099       8.4603133      6636.9718      4223.4724      10860.444      155819.27      42.71008       42.71008       85.42016           16040 
    278000   3216.702       302326.32      1742.8771      302781.57      303384.73      300812.67     -1692.5007     -1050.4227      2231.413       6668.8776      4290.676       10959.554      155869.54      42.714673      42.714673      85.429345          16040 
    279000   3178.85        301466.61      1749.3856      301125.04      302004.3       301270.48      1933.2406      4025.9596     -3806.6863      6590.4029      4278.1219      10868.525      155838         42.711792      42.711792      85.423584          16040 
    280000   3210.0465      296894.81      1755.8935      296203.79      296420.19      298060.47      1855.6145      2183.8087      302.38636      6655.0795      4214.715       10869.795      156160.23      42.74121       42.74121       85.482421          16040 
    281000   3202.3538      298014.05      1762.3988      298075.15      296817.54      299149.48     -419.2084       1871.9851     -1054.6521      6639.131       4190.6692      10829.8        156016.19      42.728065      42.728065      85.456129          16040 
    282000   3222.5793      300873.07      1768.9073      300704.95      300732.61      301181.65     -1282.6661     -757.77637      2154.739       6681.0626      4259.0828      10940.145      155986.54      42.725358      42.725358      85.450716          16040 
    283000   3205.6055      307228.24      1775.416       307336.58      308255.8       306092.33     -1933.2994      2344.7674     -1522.8489      6645.8724      4321.3913      10967.264      155653.22      42.694903      42.694903      85.389807          16040 
    284000   3215.2922      302674.57      1781.9286      302986.52      301015.96      304021.24     -102.44161     -761.17299      3354.1832      6665.9549      4323.0019      10988.957      155896.68      42.717152      42.717152      85.434303          16040 
    285000   3183.3599      298476.2       1788.4394      298739.95      297808.39      298880.28      1843.0575      464.09281      402.92962      6599.7528      4207.1187      10806.872      156069.84      42.732962      42.732962      85.465923          16040 
    286000   3207.2333      299455.7       1794.9496      298746.54      300496.5       299124.05      713.08905      911.17788      476.11513      6649.2473      4322.8643      10972.112      156179.32      42.742951      42.742951      85.485903          16040 
[...]
   3930000   3498.6292      298385.61      7033.5617      300537.34      301508.99      293110.49      153.13534     -2392.5126      72.486485      7253.3702      5368.6539      12622.024      156971.95      42.764935      42.764935      85.831444          16040 
   3931000   3530.2829      298404.2       7041.1408      299874.39      300476.05      294862.16      1047.463      -3689.3234     -530.7753       7318.9948      5316.4538      12635.449      156894.61      42.757911      42.757911      85.817346          16040 
   3932000   3545.7582      298222.49      7048.7031      301325.26      299280.19      294062.03      479.35904      1928.0615      203.88058      7351.0781      5296.1037      12647.182      156829.58      42.752002      42.752002      85.805487          16040 
   3933000   3540.4341      302973.97      7056.2693      305007.93      304926.54      298987.45     -517.13751     -1005.6784     -136.06366      7340.0402      5336.9869      12677.027      156666.2       42.737151      42.737151      85.775681          16040 
   3934000   3551.3453      303831.04      7063.8416      304734.54      307399.3       299359.28      3650.502      -3097.4834      1383.8222      7362.6614      5321.25        12683.911      156625.21      42.733424      42.733424      85.768199          16040 
   3935000   3511.7501      301306.37      7071.4158      304246.79      301730.45      297941.87     -93.829799     -100.89911      2743.8212      7280.5724      5380.3364      12660.909      156744.8       42.744297      42.744297      85.790023          16040 
   3936000   3537.7757      299769.81      7078.9784      301185.09      302417.7       295706.62      635.68536     -131.07596     -397.02406      7334.5289      5310.6408      12645.17       156827.77      42.751838      42.751838      85.805157          16040 
   3937000   3513.9969      299484.96      7086.5551      302249.21      302162.4       294043.27      619.63408      185.80405      558.20408      7285.2305      5345.5591      12630.79       156903.3       42.7587        42.7587        85.81893           16040 
   3938000   3528.4255      298224.38      7094.1248      302044.83      299090.59      293537.71     -908.78871     -2160.5922      705.83864      7315.1439      5313.6363      12628.78       156913.26      42.759605      42.759605      85.820747          16040 
   3939000   3542.8091      299230.91      7101.7018      300549.14      301388.66      295754.94      3547.2208     -425.28778      152.70118      7344.9641      5296.9364      12641.901      156842.61      42.753186      42.753186      85.807863          16040 
   3940000   3569.5916      299310.35      7109.2766      299010.86      302021.61      296898.58     -670.54383      2618.5204     -1126.447       7400.4897      5233.5077      12633.997      156881.59      42.756728      42.756728      85.814972          16040 
   3941000   3538.5741      299786.47      7116.844       302303.85      301814.3       295241.25     -1182.5471      2754.7219      1520.7867      7336.184       5298.145       12634.329      156876.93      42.756304      42.756304      85.814121          16040 
   3942000   3568.2836      300481.92      7124.422       300534.85      303389.76      297521.14      1709.835      -4227.0633     -1901.7321      7397.7779      5265.8587      12663.637      156716.08      42.741686      42.741686      85.784784          16040 
   3943000   3549.9043      306106.38      7131.9933      308612.4       308720.1       300986.64      4744.326      -2778.6243      2319.4733      7359.6739      5339.5303      12699.204      156526.53      42.724447      42.724447      85.750183          16040 
   3944000   3532.4917      300629.4       7139.5746      302977.11      303987.38      294923.7      -1587.6447      853.13697      223.48403      7323.5741      5325.6459      12649.22       156785.1       42.74796       42.74796       85.797376          16040 
   3945000   3541.6188      297080.09      7147.1402      300703         298263.9       292273.37      711.71311     -2523.3119     -1820.3784      7342.4964      5266.3712      12608.868      157000.56      42.767533      42.767533      85.83666           16040 
   3946000   3540.4647      296825.2       7154.7082      297704.31      298853.14      293918.14      1231.7063     -1304.9073      2687.1905      7340.1037      5264.1286      12604.232      157017.89      42.769107      42.769107      85.839817          16040 
   3947000   3558.5488      295591.1       7162.2774      298508.8       297551.51      290712.98      524.65603      2690.6883     -218.75929      7377.5957      5230.7519      12608.348      156993.49      42.766891      42.766891      85.83537           16040 
   3948000   3515.7035      298268.14      7169.8472      298724.97      300327.71      295751.75      69.078717     -1318.1571     -3905.1557      7288.7687      5331.8765      12620.645      156922.9       42.76048       42.76048       85.822504          16040 
   3949000   3555.9357      301240.72      7177.4304      303298.18      303788.38      296635.61     -74.937383      1625.7814     -3713.6585      7372.1783      5285.021       12657.199      156727.9       42.74276       42.74276       85.786939          16040 
   3950000   3527.0941      305786.96      7185.0024      306801.69      307067.21      303491.97      3121.7366      2644.4795      1774.219       7312.3837      5383.7184      12696.102      156518.63      42.723728      42.723728      85.74874           16040 
   3951000   3554.8238      303952.92      7192.5831      305865.09      306976.92      299016.73      1130.3568     -2021.2139     -962.47594      7369.873       5297.2614      12667.134      156665.42      42.73708       42.73708       85.775538          16040 
   3952000   3538.0638      300226.35      7200.1513      303418.19      302786.94      294473.92     -275.9468      -52.314223     -5955.5353      7335.1261      5304.5369      12639.663      156810.51      42.750269      42.750269      85.80201           16040 
   3953000   3531.3367      300078.41      7207.7196      300999.63      303390.44      295845.16      1750.5203     -2649.3853     -3021.996       7321.1796      5307.2757      12628.455      156868.88      42.755573      42.755573      85.812655          16040 
   3954000   3557.8814      297614.18      7215.2926      299524.32      301149.36      292168.84      31.077799      106.719       -3123.8311      7376.212       5237.4268      12613.639      156946.65      42.762637      42.762637      85.826833          16040 
   3955000   3539.7921      296361.45      7222.8593      299573.93      298198.11      291312.3       581.66881      3205.3871     -1206.3866      7338.7093      5276.1568      12614.866      156940.28      42.762059      42.762059      85.825672          16040 
   3956000   3528.2301      301019.89      7230.4301      302041.41      302801.51      298216.74     -366.15083      247.28534     -2067.6796      7314.7388      5335.2447      12649.984      156752.63      42.745008      42.745008      85.791451          16040 
   3957000   3530.0921      304472.33      7238.0027      305280.64      307813.52      300322.84     -1831.6611      1779.4678      484.00885      7318.5992      5365.2396      12683.839      156572.23      42.728604      42.728604      85.758527          16040 
   3958000   3552.1123      302240.57      7245.5742      305896.61      302912.3       297912.8       644.9649      -1280.5861     -1838.1263      7364.2514      5288.761       12653.012      156731.27      42.743067      42.743067      85.787555          16040 
   3959000   3524.913       298918.5       7253.1492      299928.23      302126.74      294700.52      280.74844     -4715.1557     -1648.9277      7307.8618      5315.553       12623.415      156883.14      42.756868      42.756868      85.815254          16040 
   3960000   3542.0635      298574.21      7260.725       300480.98      300577.08      294664.57      2068.0791     -2599.581      -2422.9696      7343.4184      5273.8127      12617.231      156913.49      42.759625      42.759625      85.820787          16040 
   3961000   3520.4231      296749.74      7268.3085      298575.25      299579.72      292094.26      2659.3949     -437.25597     -2834.383       7298.5534      5305.4336      12603.987      156985.58      42.766173      42.766173      85.833928          16040 
   3962000   3537.4891      297874.16      7275.8857      297329.69      301513.69      294779.11      1019.8995     -746.17289     -3365.5692      7333.9347      5282.6099      12616.545      156917.36      42.759977      42.759977      85.821493          16040 
   3963000   3542.8939      300850.36      7283.4587      300499.15      305507.36      296544.57     -3530.0208     -1251.8501     -479.00452      7345.1399      5288.7009      12633.841      156819.86      42.751119      42.751119      85.803715          16040 
   3964000   3540.569       306036.7       7291.0367      305573.82      308493.69      304042.58     -640.91766      2506.7214     -215.92701      7340.3199      5364.9085      12705.228      156440.97      42.716661      42.716661      85.734557          16040 
   3965000   3561.4532      302500.03      7298.6148      303346.32      304498.67      299655.12      752.14012     -1354.6542     -2669.1622      7383.6171      5287.6113      12671.228      156615.68      42.732556      42.732556      85.766459          16040 
   3966000   3540.6826      303300.43      7306.1967      306110.01      307121.66      296669.62     -1706.8995      1310.3609     -1120.8671      7340.5554      5316.9859      12657.541      156686.96      42.739039      42.739039      85.77947           16040 
   3967000   3537.3373      298895.05      7313.7679      302808.88      301408.24      292468.02      2793.326      -1799.173      -986.25667      7333.6199      5300.5619      12634.182      156807.7       42.750014      42.750014      85.801497          16040 
   3968000   3508.5472      297146.6       7321.3455      298787.79      301770.86      290881.15     -594.13261     -117.25704     -2781.5697      7273.9321      5325.5442      12599.476      156992.85      42.766833      42.766833      85.835254          16040 
   3969000   3514.3062      296305.99      7328.9168      298929.53      299007.43      290981.01     -830.82466      378.52635      833.51463      7285.8718      5315.7874      12601.659      156977.61      42.765449      42.765449      85.832477          16040 
   3970000   3509.8506      299892.56      7336.4963      301106.07      301750.38      296821.25     -669.57281      687.97681     -7.6669508      7276.6344      5355.4251      12632.06       156814.38      42.750621      42.750621      85.802715          16040 
   3971000   3521.2972      299550.96      7344.0685      302430.57      300112.91      296109.41     -720.38591     -2816.2142     -1686.9946      7300.3656      5326.3797      12626.745      156842.03      42.753133      42.753133      85.807758          16040 
   3972000   3542.4541      298811.85      7351.6369      302400.37      299529.55      294505.62      1489.3987      1836.673      -2757.1614      7344.2282      5279.0901      12623.318      156856.75      42.754471      42.754471      85.810443          16040 
   3973000   3489.301       295317.43      7359.2085      296835.3       298409.78      290707.21     -1391.7262     -1494.6972     -938.01642      7234.031       5352.0832      12586.114      157053.39      42.772329      42.772329      85.846285          16040 
   3974000   3532.4434      297207.97      7366.782       299319.86      299962.48      292341.58      874.99953     -2178.3585      2571.5775      7323.4738      5264.0138      12587.488      157042.39      42.771331      42.771331      85.844281          16040 
   3975000   3532.761       298471.24      7374.3676      298965.8       301273.48      295174.44      653.94917     -883.61895      609.41276      7324.1324      5287.6848      12611.817      156911.53      42.759447      42.759447      85.820431          16040 
   3976000   3542.8799      302738.78      7381.9524      305671.99      306071.53      296472.83      287.67935      2157.9653     -3121.7877      7345.1109      5322.8454      12667.956      156611.09      42.73214       42.73214       85.765623          16040 
   3977000   3523.5015      301590.29      7389.5408      304034.59      303174.16      297562.12     -2377.4757     -3202.0719     -2500.4258      7304.9354      5356.4593      12661.395      156644.1       42.735141      42.735141      85.771647          16040 
   3978000   3546.88        302116.32      7397.1145      303766.09      302986.66      299596.23      466.78756      697.61996     -1969.7611      7353.404       5296.9896      12650.394      156695.47      42.739812      42.739812      85.781022          16040 
   3979000   3541.9437      300359.31      7404.691       301374.98      302233.35      297469.59      224.46768      718.83853     -1299.3052      7343.17        5285.385       12628.555      156810.7       42.750286      42.750286      85.802044          16040 
   3980000   3511.7659      298335.05      7412.2667      299513.41      299542.82      295948.92     -1717.5035     -1550.0908     -378.05643      7280.6051      5332.2793      12612.884      156893.76      42.757833      42.757833      85.817191          16040 
   3981000   3523.0214      297079.19      7419.84        298129.65      300259.12      292848.79     -2573.7792     -290.75404      885.43389      7303.9402      5311.9553      12615.895      156874.17      42.756054      42.756054      85.81362           16040 
   3982000   3516.2982      301687.25      7427.4171      303649.4       302805.89      298606.48      2243.0376     -814.9285      -403.97275      7290.0017      5357.5395      12647.541      156704.34      42.740619      42.740619      85.782641          16040 
   3983000   3533.3954      299665.67      7434.9959      302198.71      302017.51      294780.78     -234.17162      1149.9955     -411.88132      7325.4476      5310.9801      12636.428      156759.69      42.745651      42.745651      85.79274           16040 
   3984000   3531.6706      300448.8       7442.5728      301812.21      302115.17      297419.01     -363.63631     -703.39702     -572.2999       7321.8718      5310.1968      12632.069      156774.97      42.747039      42.747039      85.795526          16040 
   3985000   3510.1357      299695.32      7450.1515      300744.31      302420.13      295921.52     -1323.375      -1549.7601     -2875.8341      7277.2254      5363.1607      12640.386      156729.55      42.742911      42.742911      85.787242          16040 
   3986000   3525.3366      301920.62      7457.738       303252.35      305183.39      297326.11     -1706.2249      164.5035       3172.5224      7308.74        5346.2627      12655.003      156651.38      42.735804      42.735804      85.772977          16040 
   3987000   3536.1606      301929.86      7465.3136      304323.78      305938.32      295527.46      2387.125      -3112.3794     -610.03485      7331.1804      5318.8311      12650.011      156670.04      42.7375        42.7375        85.776381          16040 
   3988000   3539.2832      297679.66      7472.883       299644.61      298432.21      294962.17     -846.15137     -328.88147      2052.9944      7337.6542      5263.4522      12601.106      156928.29      42.76097       42.76097       85.823486          16040 
   3989000   3522.4251      296133.38      7480.4551      296274.55      298932.97      293192.63     -3139.4197      515.27209     -995.25753      7302.704       5271.7052      12574.409      157072.56      42.77407       42.77407       85.849779          16040 
   3990000   3536.4264      296580.5       7488.0282      299963.78      298697.72      291080.02     -904.93634      3338.9603     -3648.4013      7331.7314      5256.9448      12588.676      156990.48      42.766618      42.766618      85.834822          16040 
   3991000   3525.1475      299843.74      7495.599       301263.99      303545.8       294721.44      1330.1479      2784.7886      985.064        7308.3479      5312.8525      12621.2        156812.76      42.750473      42.750473      85.802419          16040 
   3992000   3523.416       298692.85      7503.1832      301077         299288.72      295712.82     -534.611       -3083.5177      4287.5264      7304.7582      5307.503       12612.261      156859.14      42.754688      42.754688      85.810879          16040 
   3993000   3536.5741      296972.11      7510.7697      300416.21      297772.61      292727.52     -1331.6028     -1190.146      -275.97991      7332.0378      5277.8244      12609.862      156866.35      42.755343      42.755343      85.812193          16040 
   3994000   3549.1076      301243.94      7518.3472      303541.65      302193.96      297996.21      2310.6041     -2548.8609     -2617.7321      7358.0221      5276.251       12634.273      156734.45      42.743356      42.743356      85.788135          16040 
   3995000   3587.0092      302583.98      7525.9195      304353.33      307497.26      295901.34     -1521.4937     -1524.3145     -1802.8021      7436.5999      5235.0914      12671.691      156533.03      42.725039      42.725039      85.751371          16040 
   3996000   3535.0658      303979.46      7533.4963      306581.26      305902.63      299454.5       2016.0956     -1274.7399      2180.9242      7328.9108      5344.1172      12673.028      156524.46      42.724258      42.724258      85.749804          16040 
   3997000   3561.9936      299061.11      7541.069       302708.18      300073.64      294401.5       1971.0604     -1165.5408     -272.1829       7384.7374      5221.6775      12606.415      156876.59      42.756273      42.756273      85.81406           16040 
   3998000   3554.6021      294933.43      7548.6487      297422         297306.45      290071.85     -766.14666     -1640.3888      1040.7347      7369.4135      5188.6463      12558.06       157133.25      42.779578      42.779578      85.860835          16040 
   3999000   3517.2374      294394.72      7556.2238      297728.02      295093.01      290363.12      600.5531       289.13187     -283.45855      7291.9487      5264.3213      12556.27       157142.6       42.780427      42.780427      85.862538          16040 
   4000000   3523.1435      298829.29      7563.7957      301581.22      301729.05      293177.61     -2818.2542      1127.616       1191.7903      7304.1934      5309.5198      12613.713      156831.44      42.752171      42.752171      85.805827          16040 
Loop time of 7563.8 on 8 procs for 1000000 steps with 16040 atoms

Performance: 5.711 ns/day, 4.202 hours/ns, 132.209 timesteps/s
60.5% CPU use with 1 MPI tasks x 8 OpenMP threads

MPI task timing breakdown:
Section |  min time  |  avg time  |  max time  |%varavg| %total
---------------------------------------------------------------
Pair    | 7278.7     | 7278.7     | 7278.7     |   0.0 | 96.23
Neigh   | 9.4711     | 9.4711     | 9.4711     |   0.0 |  0.13
Comm    | 40.583     | 40.583     | 40.583     |   0.0 |  0.54
Output  | 1.2955     | 1.2955     | 1.2955     |   0.0 |  0.02
Modify  | 207.43     | 207.43     | 207.43     |   0.0 |  2.74
Other   |            | 26.28      |            |       |  0.35

Nlocal:          16040 ave       16040 max       16040 min
Histogram: 1 0 0 0 0 0 0 0 0 0
Nghost:          13628 ave       13628 max       13628 min
Histogram: 1 0 0 0 0 0 0 0 0 0
Neighs:              0 ave           0 max           0 min
Histogram: 1 0 0 0 0 0 0 0 0 0
FullNghs:  1.47974e+06 ave 1.47974e+06 max 1.47974e+06 min
Histogram: 1 0 0 0 0 0 0 0 0 0

Total # of neighbors = 1479736
Ave neighs/atom = 92.252868
Neighbor list builds = 29446
Dangerous builds = 0
Total wall time: 7:51:59
