
atom_style atomic
units metal
boundary p p p
#atom_modify sort 0 0.0
newton on

read_data data.lammps
Reading data file ...
  orthogonal box = (0 0 0) to (43.790145 43.790145 87.58029)
  1 by 1 by 1 MPI processor grid
  reading atoms ...
  16040 atoms
  read_data CPU = 0.033 seconds
# replicate 10 10 20

### interactions

pair_style flare
pair_coeff * * lmp.flare
Reading potential file lmp.flare with DATE: Thu

# compute unc all flare/std/atom L_inv_lmp.flare sparse_desc_lmp.flare
# compute MaxUnc all reduce max c_unc

mass 1 12.011000
mass 2 28.085000

thermo_style custom step temp press cpu pxx pyy pzz pxy pxz pyz ke pe etotal vol lx ly lz atoms    #c_MaxUnc
thermo 1000
timestep 0.0005
restart 100000 restart_*.dat

#################### Equilibrate at P and T_es ##############################
velocity all create $T 41928459 rot yes dist gaussian
velocity all create 3600 41928459 rot yes dist gaussian
fix mom all momentum 1000 linear 1 1 1 angular

fix 1 all npt temp $T $T $(100.0*dt) iso $P $P $(1000.0*dt)
fix 1 all npt temp 3600 $T $(100.0*dt) iso $P $P $(1000.0*dt)
fix 1 all npt temp 3600 3600 $(100.0*dt) iso $P $P $(1000.0*dt)
fix 1 all npt temp 3600 3600 0.050000000000000002776 iso $P $P $(1000.0*dt)
fix 1 all npt temp 3600 3600 0.050000000000000002776 iso 100000 $P $(1000.0*dt)
fix 1 all npt temp 3600 3600 0.050000000000000002776 iso 100000 100000 $(1000.0*dt)
fix 1 all npt temp 3600 3600 0.050000000000000002776 iso 100000 100000 0.5
dump 1 all custom 1000 1equil.bin id type x y z vx vy vz
run   10000 # report performance
Neighbor list info ...
  update every 1 steps, delay 10 steps, check yes
  max neighbors/atom: 2000, page size: 100000
  master list distance cutoff = 6
  ghost atom cutoff = 6
  binsize = 6, bins = 8 8 15
  1 neighbor lists, perpetual/occasional/extra = 1 0 0
  (1) pair flare/kk, perpetual
      attributes: full, newton on, kokkos_device
      pair build: full/bin/kk/device
      stencil: full/bin/3d
      bin: kk/device
Per MPI rank memory allocation (min/avg/max) = 16.04 | 16.04 | 16.04 Mbytes
   Step          Temp          Press           CPU            Pxx            Pyy            Pzz            Pxy            Pxz            Pyz           KinEng         PotEng         TotEng         Volume           Lx             Ly             Lz          Atoms   
         0   3600           81902.079      0              82518.078      81452.516      81735.644      1102.7296     -207.42286     -845.17692      7463.5325     -2985.8921      4477.6404      167941.93      43.790145      43.790145      87.58029           16040 
      1000   3565.2392      96603.996      6.7296545      95028.598      97995.496      96787.895     -381.77035      1602.1823      1274.7121      7391.4662      4903.5238      12294.99       172128.42      44.151033      44.151033      88.302065          16040 
      2000   3644.3009      96827.686      13.410905      97901.603      96341.334      96240.119     -1351.0959     -371.19211      1026.6975      7555.3773      5042.6996      12598.077      172288.49      44.164714      44.164714      88.329428          16040 
      3000   3575.7281      102075.17      20.094571      101904.02      101668.05      102653.44      164.0984       377.30258      273.84893      7413.2118      4804.7321      12217.944      171654.92      44.110511      44.110511      88.221021          16040 
      4000   3587.4048      98897.738      26.781205      99825.306      97826.106      99041.803     -407.71889      1572.2367     -1332.3396      7437.42        4891.6635      12329.084      171972.51      44.137698      44.137698      88.275395          16040 
      5000   3611.2836      99305.054      33.464515      99552.463      98889.974      99472.725      990.75298     -1122.015      -26.578701      7486.9256      4922.3861      12409.312      172143.37      44.15231       44.15231       88.304621          16040 
      6000   3618.0705      101082.69      40.150135      101644.51      100589.07      101014.51      789.34059     -178.75223     -961.28553      7500.9963      4708.8948      12209.891      171697.43      44.114152      44.114152      88.228304          16040 
      7000   3630.8354      102090.75      46.835233      103400.81      100931.84      101939.61     -186.75783      2832.43        666.64255      7527.4605      4840.2357      12367.696      171691.65      44.113657      44.113657      88.227313          16040 
      8000   3612.5079      102876.6       53.518981      101853.77      101739.36      105036.67      41.020749     -2925.6131      561.31867      7489.4639      4927.948       12417.412      171843.32      44.126642      44.126642      88.253285          16040 
      9000   3582.2219      100333.61      60.204157      100638.25      98448.392      101914.18      647.74022     -1068.6685      607.9205       7426.6748      4805.5581      12232.233      171879.47      44.129737      44.129737      88.259474          16040 
     10000   3598.0487      99684.498      66.880924      99836.016      98286.379      100931.1      -1723.6548     -519.48882     -1051.3311      7459.487       4824.9209      12284.408      171816.88      44.124379      44.124379      88.248758          16040 
Loop time of 66.8809 on 8 procs for 10000 steps with 16040 atoms

Performance: 6.459 ns/day, 3.716 hours/ns, 149.519 timesteps/s
61.8% CPU use with 1 MPI tasks x 8 OpenMP threads

MPI task timing breakdown:
Section |  min time  |  avg time  |  max time  |%varavg| %total
---------------------------------------------------------------
Pair    | 63.898     | 63.898     | 63.898     |   0.0 | 95.54
Neigh   | 0.094642   | 0.094642   | 0.094642   |   0.0 |  0.14
Comm    | 0.37374    | 0.37374    | 0.37374    |   0.0 |  0.56
Output  | 0.012052   | 0.012052   | 0.012052   |   0.0 |  0.02
Modify  | 2.2556     | 2.2556     | 2.2556     |   0.0 |  3.37
Other   |            | 0.2474     |            |       |  0.37

Nlocal:          16040 ave       16040 max       16040 min
Histogram: 1 0 0 0 0 0 0 0 0 0
Nghost:          13674 ave       13674 max       13674 min
Histogram: 1 0 0 0 0 0 0 0 0 0
Neighs:              0 ave           0 max           0 min
Histogram: 1 0 0 0 0 0 0 0 0 0
FullNghs:  1.37537e+06 ave 1.37537e+06 max 1.37537e+06 min
Histogram: 1 0 0 0 0 0 0 0 0 0

Total # of neighbors = 1375366
Ave neighs/atom = 85.74601
Neighbor list builds = 314
Dangerous builds = 0
run  990000
Per MPI rank memory allocation (min/avg/max) = 16.11 | 16.11 | 16.11 Mbytes
   Step          Temp          Press           CPU            Pxx            Pyy            Pzz            Pxy            Pxz            Pyz           KinEng         PotEng         TotEng         Volume           Lx             Ly             Lz          Atoms   
     10000   3598.0487      99684.498      0              99836.016      98286.379      100931.1      -1723.6548     -519.48882     -1051.3311      7459.487       4824.9209      12284.408      171816.88      44.124379      44.124379      88.248758          16040 
     11000   3622.9016      97799.012      6.6850665      97930.916      98418.616      97047.504      756.86715     -456.04193     -837.00293      7511.0122      4836.5696      12347.582      172074.77      44.146445      44.146445      88.292889          16040 
     12000   3559.0926      97926.319      13.371477      97470.4        98810.898      97497.658      1112.6581     -229.43663     -2030.9031      7378.7232      4840.8339      12219.557      172021.24      44.141866      44.141866      88.283732          16040 
     13000   3578.0942      92473.346      20.059779      93191.658      91670.192      92558.187     -939.41739     -120.71505     -219.46761      7418.1174      4806.3304      12224.448      172394.84      44.1738        44.1738        88.347599          16040 
     14000   3583.1238      98466.928      26.747802      99157.899      98728.789      97514.095      1078.0776     -207.62911      78.958916      7428.5446      4850.0325      12278.577      172031.11      44.142711      44.142711      88.285421          16040 
     15000   3614.1969      99237.568      33.442362      98724.083      100999.54      97989.085     -1492.9658      2003.3086     -832.19509      7492.9656      4779.2753      12272.241      171856.76      44.127793      44.127793      88.255586          16040 
     16000   3607.5161      102584.13      40.139107      101760.9       102958.05      103033.43      1219.6099      705.26719     -346.76053      7479.1149      4855.5647      12334.68       171771.21      44.12047       44.12047       88.240939          16040 
     17000   3592.4789      101780.02      46.832132      100670.9       101655.52      103013.63     -418.51113     -150.99478     -1139.7628      7447.9397      4794.9146      12242.854      171726.86      44.116672      44.116672      88.233345          16040 
     18000   3567.2187      102206.91      53.519661      101460.89      103037.25      102122.59     -1382.2743      1879.7469      1398.2242      7395.5702      4846.7093      12242.279      171719.21      44.116017      44.116017      88.232033          16040 
     19000   3588.8302      98846.682      60.217117      99694.937      98120.636      98724.474     -2025.8442      221.47374      1418.114       7440.3752      4916.0887      12356.464      171999.13      44.139975      44.139975      88.279951          16040 
     20000   3645.2792      100342.72      66.916563      99124.116      100774.71      101129.32     -189.77628      1943.9137      998.26512      7557.4055      4740.3111      12297.717      171805.12      44.123373      44.123373      88.246745          16040 
     21000   3613.0421      98122.085      73.618203      97488.458      98253.665      98624.131     -363.26936      1611.4031      1047.9925      7490.5715      4763.1764      12253.748      171998.27      44.139902      44.139902      88.279803          16040 
     22000   3610.5779      95726.541      80.317744      95274.788      96476.286      95428.549     -1804.7835     -121.86123      1127.1646      7485.4626      4753.8935      12239.356      172085.23      44.147339      44.147339      88.294678          16040 
     23000   3606.4623      103149.68      87.018571      101617.22      104631.88      103199.92      1114.2191     -1057.7334      2115.1714      7476.9301      4785.7833      12262.713      171660.67      44.111003      44.111003      88.222007          16040 
     24000   3619.4572      102759.44      93.717818      102731.89      102319.88      103226.54     -806.90542     -2705.1499     -255.34362      7503.8712      4845.368       12349.239      171628.82      44.108275      44.108275      88.21655           16040 
     25000   3609.2945      100047.84      100.41809      100558.53      101748.66      97836.321     -3568.598      -478.16177      1632.3443      7482.8019      4825.957       12308.759      171776.31      44.120907      44.120907      88.241813          16040 
     26000   3605.4613      102608.05      107.11651      102923.01      101794.08      103107.06      1142.3766     -934.21232     -1168.4255      7474.8549      4844.3018      12319.157      171562.05      44.102554      44.102554      88.205109          16040 
     27000   3656.4208      101263.38      113.81651      99799.922      100580.04      103410.16      158.39391     -882.49545      169.23754      7580.5042      4868.3194      12448.824      171777.99      44.12105       44.12105       88.2421            16040 
     28000   3632.2561      100575.7       120.51623      101114.37      99523.564      101089.16     -936.06268      2611.992       1453.0282      7530.4059      4898.759       12429.165      171879.95      44.129778      44.129778      88.259556          16040 
     29000   3603.8283      101132.26      127.21558      99663.828      102582.4       101150.55      2849.8205     -2071.9116      86.619022      7471.4692      4761.1643      12232.633      171687.65      44.113314      44.113314      88.226628          16040 
     30000   3605.248       102202.84      133.91659      103679.86      101528.12      101400.54     -1743.7505      747.15065     -533.07858      7474.4127      4797.7407      12272.153      171685.2       44.113104      44.113104      88.226209          16040 
     31000   3609.0951      98562.41       140.61614      98196.637      98836.08       98654.513     -474.15142     -2438.9953     -875.32077      7482.3885      4866.8324      12349.221      172027.33      44.142387      44.142387      88.284775          16040 
     32000   3588.9003      98373.494      147.31583      99378.473      97998.762      97743.246      416.04921      40.788658     -2.4574818      7440.5206      4745.5222      12186.043      171875.13      44.129365      44.129365      88.25873           16040 
     33000   3578.3421      95419.475      154.01839      93127.293      95645.586      97485.544      979.30029     -26.865035     -796.46548      7418.6312      4854.5749      12273.206      172180.84      44.155513      44.155513      88.311027          16040 
     34000   3580.5184      95004.264      160.71708      94970.146      93580.058      96462.588     -29.054309     -1529.7495     -3948.4307      7423.1432      4748.1578      12171.301      172163.78      44.154055      44.154055      88.30811           16040 
     35000   3543.3588      98461.231      167.41552      98752.79       97900.803      98730.101      884.8097      -2164.3258      1003.8437      7346.1038      4746.8919      12092.996      171833.65      44.125815      44.125815      88.25163           16040 
     36000   3618.2087      98227.106      174.11564      98793.601      97691.453      98196.265     -418.86033     -739.32847     -756.0979       7501.2828      4800.3665      12301.649      171962         44.136799      44.136799      88.273598          16040 
     37000   3607.4966      101561.94      180.81565      100044.96      102028.84      102612.02     -23.820122      1492.9912      886.74518      7479.0744      4828.188       12307.262      171702.96      44.114625      44.114625      88.22925           16040 
     38000   3583.5028      101596.94      187.51667      102042.52      101716.88      101031.42     -1161.4536     -897.90907      1532.1649      7429.3303      4768.5144      12197.845      171602.66      44.106034      44.106034      88.212067          16040 
     39000   3583.8932      102926.61      194.21893      102533.57      104746.16      101500.1       722.27312     -2413.4566      1792.0354      7430.1399      4768.6225      12198.762      171549.75      44.1015        44.1015        88.203             16040 
     40000   3603.4864      101171.67      200.91839      101233.68      102361.87      99919.461     -369.72801      124.0251       691.09493      7470.7606      4790.5163      12261.277      171733.63      44.117251      44.117251      88.234503          16040 
     41000   3582.3442      98984.371      207.61808      99095.623      99794.48       98063.009     -1462.0655     -1786.6111     -1712.8353      7426.9284      4800.6939      12227.622      171857         44.127814      44.127814      88.255627          16040 
     42000   3604.3781      97546.394      214.3191       96695.966      98314.551      97628.666      1296.9814      398.95541     -1303.9323      7472.6092      4715.0547      12187.664      171865.01      44.1285        44.1285        88.256999          16040 
     43000   3590.2833      98440.579      221.01682      98021.393      98532.944      98767.401      736.22986     -492.49156      532.37328      7443.3879      4770.5249      12213.913      171801.89      44.123096      44.123096      88.246192          16040 
     44000   3604.1195      96420.588      227.71517      97310.266      96010.058      95941.441     -1100.3315     -1770.3849      1597.9118      7472.0731      4814.3084      12286.382      172053.43      44.14462       44.14462       88.289239          16040 
     45000   3586.8084      98737.756      234.41558      97627.483      100062.14      98523.647      1261.7595      440.50794     -1029.0315      7436.1835      4800.9898      12237.173      171937.37      44.134691      44.134691      88.269382          16040 
     46000   3567.1039      99156.868      241.1151       99761.463      99338.377      98370.763      3419.4632     -798.18535      2454.5653      7395.3321      4741.1742      12136.506      171716.51      44.115786      44.115786      88.231571          16040 
     47000   3596.7641      101175.99      247.81624      101682.88      101820.42      100024.68      973.72185     -574.66341      940.64122      7456.8238      4819.0275      12275.851      171657.61      44.110741      44.110741      88.221483          16040 
     48000   3607.9871      102202.92      254.51381      102522.97      101791.31      102294.46      328.61593      176.05689     -887.49605      7480.0914      4800.7903      12280.882      171570.79      44.103303      44.103303      88.206606          16040 
     49000   3622.9227      101479.28      261.21194      101364.05      101314.16      101759.65      3725.4886      347.36804      774.62271      7511.0559      4813.7284      12324.784      171688.72      44.113406      44.113406      88.226812          16040 
     50000   3590.8041      100186.86      267.89856      99778.096      100437.72      100344.77     -595.54316     -1067.0758     -391.67687      7444.4675      4833.0183      12277.486      171827.73      44.125308      44.125308      88.250617          16040 
     51000   3587.7707      99223.723      274.60137      99165.889      99908.24       98597.041      1343.3054     -53.463463     -2321.6059      7438.1787      4788.8888      12227.068      171753.48      44.118951      44.118951      88.237903          16040 
     52000   3602.9582      99627.437      281.29978      99512.069      99751.987      99618.256      1223.7927      1245.0404     -1883.6993      7469.6655      4757.3096      12226.975      171761.35      44.119625      44.119625      88.23925           16040 
     53000   3562.6329      94772.523      288.00113      94876.82       95163.582      94277.166     -515.20612      2007.6588      1317.4154      7386.0629      4787.472       12173.535      172169.86      44.154575      44.154575      88.30915           16040 
     54000   3593.1325      96557.846      294.70143      96528.475      97133.179      96011.883     -444.00468      2284.6196      1627.7679      7449.2947      4717.5495      12166.844      171942.82      44.135158      44.135158      88.270316          16040 
     55000   3562.7839      95844.11       301.40059      95206.507      95811.595      96514.228     -1377.9764     -539.64611      465.87875      7386.376       4652.8006      12039.177      171955.22      44.136218      44.136218      88.272437          16040 
     56000   3619.2544      96866.258      308.09995      96614.233      97987.247      95997.293     -241.72568      893.99547     -455.55542      7503.4507      4694.6227      12198.073      171929.7       44.134036      44.134036      88.268071          16040 
     57000   3592.3559      98299.802      314.80011      97477.41       98901.337      98520.66       58.138167      462.41592     -1412.2022      7447.6847      4727.501       12175.186      171837.11      44.126111      44.126111      88.252223          16040 
     58000   3595.0443      99937.822      321.5007       99301.106      99658.212      100854.15      293.87929      401.34681      1872.0684      7453.2583      4755.5594      12208.818      171837.58      44.126151      44.126151      88.252302          16040 
     59000   3552.3097      101922.36      328.19581      102387.77      101779.13      101600.2       268.21664     -813.00883      701.23678      7364.6609      4727.8938      12092.555      171444.71      44.092498      44.092498      88.184995          16040 
     60000   3585.7198      102214.07      334.89433      102571.85      101428.76      102641.61      599.75341     -1425.8467      292.81266      7433.9267      4826.239       12260.166      171648.69      44.109977      44.109977      88.219954          16040 
     61000   3582.3312      102453.37      341.59118      104225.12      101347.57      101787.43      1871.5516      1595.5629     -208.08071      7426.9014      4737.9441      12164.845      171564.5       44.102765      44.102765      88.205529          16040 
     62000   3604.7276      102130.11      348.29137      102580.17      101913.31      101896.84     -303.72515      888.40849     -1229.9969      7473.3338      4747.5186      12220.852      171557.24      44.102142      44.102142      88.204284          16040 
     63000   3632.4013      101009.64      354.992        100870.89      101327.11      100830.91     -1999.8898      1111.8393      1318.3436      7530.707       4723.8375      12254.545      171669.22      44.111736      44.111736      88.223472          16040 
     64000   3596.0023      97668.332      361.69154      98487.146      96246.797      98271.052     -568.90077     -1202.8803     -1190.6425      7455.2444      4728.7658      12184.01       171941.7       44.135062      44.135062      88.270124          16040 
     65000   3593.6895      96372.859      368.3897       95506.853      97222.935      96388.79      -2042.1199     -1364.0099     -16.890494      7450.4496      4698.4453      12148.895      172003.02      44.140308      44.140308      88.280616          16040 
     66000   3613.1543      95866.21       375.08846      95854.304      95435.74       96308.585     -2090.0165      1044.4674      517.1684       7490.804       4897.6399      12388.444      172271.29      44.163245      44.163245      88.326489          16040 
     67000   3554.9452      99281.326      381.78514      100385.65      98461.541      98996.791     -817.78317      2048.7655     -1083.1541      7370.1247      4761.443       12131.568      171837.61      44.126154      44.126154      88.252307          16040 
     68000   3613.7468      98677.322      388.48187      100233.26      98449.793      97348.914     -2808.7122      642.51258      1894.2164      7492.0323      4647.263       12139.295      171737.32      44.117567      44.117567      88.235135          16040 
     69000   3614.4125      98143.841      395.18114      99058.91       97912.519      97460.095      242.15493     -942.12136      194.38732      7493.4126      4784.3098      12277.722      171920.01      44.133206      44.133206      88.266413          16040 
     70000   3608.7882      101900.83      401.87715      100861.63      103359.19      101481.66     -1206.8883     -1748.9799     -1164.1447      7481.7521      4745.4576      12227.21       171601.51      44.105936      44.105936      88.211871          16040 
     71000   3592.9037      101106.82      408.57437      101041.53      100090.21      102188.72      404.96704     -998.42504     -1044.0607      7448.8205      4783.4563      12232.277      171744.49      44.118182      44.118182      88.236364          16040 
     72000   3613.5997      99370.354      415.2711       98016.876      100934.02      99160.162      31.389422     -1969.7843      1350.0532      7491.7275      4832.6678      12324.395      171863.92      44.128406      44.128406      88.256812          16040 
     73000   3614.5839      101225.46      421.96729      100303.56      102717.68      100655.14      408.57755     -1237.3371     -1468.1314      7493.7679      4717.8699      12211.638      171591.72      44.105096      44.105096      88.210193          16040 
     74000   3620.935       103256.7       428.66338      103900.53      103827.62      102041.95      2015.638       933.04898      1086.2009      7506.9349      4728.6281      12235.563      171463.79      44.094133      44.094133      88.188265          16040 
     75000   3603.9608      100597.5       435.35889      101554.82      99334.239      100903.45      365.77621      1941.3781      1245.072       7471.744       4853.009       12324.753      171707.1       44.11498       44.11498       88.229959          16040 
     76000   3600.8822      99382.182      442.05417      99353.835      100287.44      98505.268     -1868.2476      1198.9055     -266.17023      7465.3615      4815.7972      12281.159      171881.17      44.129882      44.129882      88.259765          16040 
     77000   3609.5733      98941.412      448.74953      99752.052      99225.208      97846.976     -357.7208       1248.3825     -268.63443      7483.3798      4712.3279      12195.708      171888.66      44.130523      44.130523      88.261047          16040 
     78000   3574.1188      101173.79      455.44341      99814.235      101366.31      102340.84     -40.928712     -350.46724      287.2493       7409.8754      4745.7018      12155.577      171537.29      44.100433      44.100433      88.200866          16040 
     79000   3618.1069      101477.25      462.13682      101562.67      100964.27      101904.82      860.52663     -503.45664      2130.4813      7501.0717      4813.007       12314.079      171717.34      44.115857      44.115857      88.231713          16040 
     80000   3614.3703      100552.11      468.83196      99127.169      101945.11      100584.04     -1709.2699      1408.2176     -345.04032      7493.325       4774.6683      12267.993      171674.75      44.112209      44.112209      88.224419          16040 
     81000   3600.2912      99821.791      475.52671      99336.052      100775.14      99354.176      1325.5107     -1608.609      -2177.8687      7464.1363      4648.6199      12112.756      171657.84      44.110761      44.110761      88.221522          16040 
     82000   3593.0795      97121.443      482.21344      95988.16       97030.739      98345.431     -264.1376       31.303372      1458.719       7449.1849      4793.5328      12242.718      172045.93      44.143978      44.143978      88.287956          16040 
     83000   3603.305       101354.47      488.91204      102462.17      101812.19      99789.047     -459.46139      95.981264     -438.25612      7470.3843      4606.5282      12076.912      171455.56      44.093428      44.093428      88.186856          16040 
     84000   3586.2333      103084.36      495.60915      103205.54      103294.15      102753.4       646.69226     -436.36538     -368.33847      7434.9914      4829.4375      12264.429      171533.75      44.100129      44.100129      88.200259          16040 
     85000   3601.7798      106206.72      502.30618      105601.22      107007.15      106011.79      1480.887       1360.9811      1290.1386      7467.2224      4707.3684      12174.591      171239.32      44.074882      44.074882      88.149765          16040 
     86000   3621.1546      105456.01      509.0045       106010.11      104761.95      105595.97     -31.707901      314.35421     -30.60841       7507.3902      4772.8697      12280.26       171341.23      44.083624      44.083624      88.167249          16040 
     87000   3664.6133      102676.72      515.70333      101974.05      102619.21      103436.89     -411.98927     -142.04297     -649.66787      7597.4889      4638.3873      12235.876      171409.66      44.089492      44.089492      88.178985          16040 
     88000   3635.9867      100759.43      522.40016      100527.25      100227.75      101523.28     -2102.5598     -119.65135      2022.8067      7538.1402      4741.7743      12279.915      171687.07      44.113265      44.113265      88.226529          16040 
     89000   3634.3317      100486.94      529.09474      100950.34      99958.665      100551.81     -1476.3038      1772.3743     -527.0889       7534.7091      4757.5621      12292.271      171749.85      44.11864       44.11864       88.237281          16040 
     90000   3591.6616      99153.739      535.78929      99832.608      98429.442      99199.167     -1647.4442     -1506.4339     -1976.7258      7446.2453      4818.7966      12265.042      171806.11      44.123457      44.123457      88.246915          16040 
     91000   3599.3916      101154.05      542.48277      101371.64      100545.15      101545.35     -521.75619     -283.40683     -1783.8669      7462.271       4711.2265      12173.498      171616.5       44.10722       44.10722       88.21444           16040 
     92000   3641.7494      102203.04      549.17552      100850.54      103760.45      101998.13      751.28769      3142.0023      260.32452      7550.0875      4740.5503      12290.638      171602.22      44.105996      44.105996      88.211992          16040 
     93000   3585.9016      103147.75      555.87019      101797.69      103733.96      103911.6       815.69117      62.406865     -442.63483      7434.3037      4746.3098      12180.613      171424.36      44.090753      44.090753      88.181506          16040 
     94000   3610.7626      98833.844      562.56223      98292.176      98804.327      99405.029     -109.9006      -1025.0832     -1043.2395      7485.8455      4790.7366      12276.582      171857.64      44.127869      44.127869      88.255738          16040 
     95000   3603.8426      96912.009      569.25413      96856.586      96692.844      97186.596      108.30429      329.30215     -1761.1879      7471.499       4747.6906      12219.19       172003.9       44.140383      44.140383      88.280766          16040 
     96000   3560.4577      98815.92       575.94802      99356.19       97358.614      99732.957     -329.89724     -318.97216     -783.05646      7381.5533      4703.5925      12085.146      171725.79      44.11658       44.11658       88.233161          16040 
     97000   3611.5377      99445.394      582.63918      101009.94      98971.369      98354.874      432.41329     -1484.3494      1406.0246      7487.4525      4767.4526      12254.905      171802.89      44.123182      44.123182      88.246364          16040 
     98000   3618.2702      99138.407      589.33234      98669.518      99641.92       99103.784     -351.00448      2200.2834      2512.8498      7501.4103      4732.2658      12233.676      171835.18      44.125946      44.125946      88.251892          16040 
     99000   3609.7276      101463.5       596.02628      102055.25      101753.07      100582.17     -2626.2772     -2113.2297     -596.76442      7483.6999      4761.7915      12245.491      171580.04      44.104096      44.104096      88.208192          16040 
    100000   3602.9273      104401.43      602.72189      103573.04      104050.83      105580.41      169.13365     -347.32985     -1071.5865      7469.6014      4714.4646      12184.066      171303.55      44.080393      44.080393      88.160786          16040 
    101000   3616.442       102565.34      609.41122      104496.62      101690.57      101508.83     -1190.4278     -224.90644     -458.48526      7497.62        4730.8936      12228.514      171453.05      44.093212      44.093212      88.186424          16040 
    102000   3581.1012      102137.73      616.1035       101534.11      102024.02      102855.08      148.76411      1069.2136     -1153.2212      7424.3515      4650.6513      12075.003      171376.11      44.086615      44.086615      88.173231          16040 
    103000   3595.9518      98686.385      622.79514      99158.529      98376.793      98523.834     -583.38197     -142.89262      886.58501      7455.1397      4751.6849      12206.825      171840.07      44.126365      44.126365      88.252729          16040 
    104000   3670.934       98788.377      629.48631      97232.419      98833.093      100299.62      77.895217      252.75228     -842.90094      7610.5932      4721.2292      12331.822      171902.47      44.131705      44.131705      88.26341           16040 
    105000   3599.2217      98820.831      636.17918      98168.525      98890.605      99403.363     -598.02865      448.61009     -422.78971      7461.9188      4645.6597      12107.578      171755.55      44.119129      44.119129      88.238258          16040 
    106000   3587.1993      101375.44      642.87084      99817.275      101332.34      102976.71     -64.908099      106.72412      2008.2273      7436.9941      4729.4396      12166.434      171548.92      44.101429      44.101429      88.202858          16040 
    107000   3648.1752      102397.14      649.56162      102848.83      101807.16      102535.43      528.73332      659.4606      -678.35688      7563.4094      4870.9806      12434.39       171641.66      44.109375      44.109375      88.21875           16040 
    108000   3538.535       103220.96      656.2508       103100.78      102472.16      104089.93      1227.6209     -186.11663     -1555.4002      7336.103       4802.9628      12139.066      171407.75      44.089329      44.089329      88.178657          16040 
    109000   3603.7794      98290.752      662.94154      99261.488      99021.483      96589.287     -478.47624     -286.65433      1270.6032      7471.3679      4698.2531      12169.621      171831.98      44.125672      44.125672      88.251344          16040 
    110000   3603.158       95671.897      669.63199      97122.504      93896.304      95996.885      2710.825       1014.4453     -574.72675      7470.0797      4803.2284      12273.308      172090.34      44.147776      44.147776      88.295552          16040 
    111000   3590.7698      100129.4       676.323        99536.172      99809.124      101042.91      1394.2502      1220.8158     -733.54861      7444.3964      4659.0697      12103.466      171637.72      44.109037      44.109037      88.218074          16040 
    112000   3603.4692      97877.259      683.01252      98810.865      97505.193      97315.717      62.390689      2292.2425     -2298.7791      7470.7249      4740.6803      12211.405      171796.07      44.122598      44.122598      88.245196          16040 
    113000   3566.8696      100413.15      689.7015       101157.94      99245.63       100835.89     -2223.3189     -632.75274      900.25769      7394.8464      4749.3393      12144.186      171723.62      44.116395      44.116395      88.232789          16040 
    114000   3551.6356      98565.967      696.38595      98366.959      99750.29       97580.652      1426.9966     -2863.8283     -1103.6182      7363.2633      4718.237       12081.5        171817.04      44.124393      44.124393      88.248787          16040 
    115000   3615.4492      94894.069      703.07717      94850.444      93882.706      95949.056     -852.45821      1666.8005     -2865.0815      7495.5618      4720.6708      12216.233      172174.43      44.154966      44.154966      88.309932          16040 
    116000   3590.6595      97314.207      709.76898      98337.423      98009.354      95595.843     -1653.9921     -1078.2833      353.75798      7444.1678      4616.2289      12060.397      171861.73      44.128219      44.128219      88.256437          16040 
    117000   3649.1648      100098.13      716.46359      100724.61      100795.22      98774.553      2188.8728      431.28943      748.44536      7565.4611      4660.6424      12226.103      171665.09      44.111382      44.111382      88.222763          16040 
    118000   3578.2498      101728.96      723.1552       101436.51      102216.16      101534.19      671.67965     -412.18667     -1312.4019      7418.4398      4679.6875      12098.127      171370.38      44.086125      44.086125      88.172249          16040 
    119000   3600.9737      100574.91      729.84606      100692.49      99956.014      101076.24     -2155.7744      3191.4526     -1241.1077      7465.5512      4841.8061      12307.357      171756.83      44.119239      44.119239      88.238477          16040 
    120000   3576.3276      97995.356      736.53848      98744.203      98113.328      97128.538     -89.206835     -257.50308      1118.0228      7414.4548      4687.4043      12101.859      171702.71      44.114604      44.114604      88.229208          16040 
    121000   3630.1539      97915.859      743.23036      98448.18       96925.067      98374.328     -1486.2109      441.76351      199.32418      7526.0476      4655.0081      12181.056      171865.22      44.128517      44.128517      88.257034          16040 
    122000   3588.9365      100331.9       749.92285      101273.62      99802.847      99919.233      1431.691       16.561616      365.11133      7440.5955      4603.2104      12043.806      171607.94      44.106486      44.106486      88.212972          16040 
    123000   3617.2926      96457.479      756.61594      96697.487      96153.672      96521.277     -237.87596     -992.23586      506.00335      7499.3835      4728.4114      12227.795      172012.21      44.141094      44.141094      88.282187          16040 
    124000   3614.2262      99269.907      763.30651      99226.89       99299.258      99283.572     -719.22068     -823.77171     -478.4091       7493.0264      4650.8005      12143.827      171645.99      44.109746      44.109746      88.219492          16040 
    125000   3636.8198      101090.39      769.99757      100294.89      101279.29      101697        -442.57981     -31.335696      168.47519      7539.8674      4714.5955      12254.463      171760.8       44.119578      44.119578      88.239157          16040 
    126000   3596.3589      107422.5       776.68917      107171.58      106897.27      108198.64      1182.3329     -1063.8369     -44.586667      7455.9836      4678.0773      12134.061      171055.84      44.059136      44.059136      88.118271          16040 
    127000   3620.367       100992.61      783.38034      101423.05      101987.67      99567.109      204.01818      250.03514      195.46172      7505.7574      4669.3647      12175.122      171473.1       44.094931      44.094931      88.189862          16040 
    128000   3623.7891      101114.99      790.07285      100703.62      100449.31      102192.05      14.65361       1145.6579     -1683.414       7512.8522      4710.6476      12223.5        171624.35      44.107892      44.107892      88.215785          16040 
    129000   3596.9335      99630.052      796.76427      100679.83      98980.117      99230.212      909.64095      609.32059      1095.996       7457.175       4807.3925      12264.568      171774.33      44.120736      44.120736      88.241473          16040 
    130000   3601.7728      99255.963      803.45451      99404.351      98316.641      100046.9      -1974.5738      972.36674      385.16325      7467.208       4719.2854      12186.493      171734.34      44.117313      44.117313      88.234626          16040 
    131000   3582.52        97667.863      810.14214      97726.871      97999.097      97277.622     -2476.7479     -1916.0193      1359.7124      7427.2928      4691.0834      12118.376      171849.31      44.127155      44.127155      88.254311          16040 
    132000   3620.1484      93056.515      816.83323      92564.604      92578.306      94026.635      2155.7297     -651.3816      -862.75638      7505.3043      4635.7821      12141.086      172248.84      44.161326      44.161326      88.322652          16040 
    133000   3568.2796      99093.742      823.52493      99025.197      98489.855      99766.174     -484.97024     -53.60458      -209.32353      7397.7696      4640.142       12037.912      171642.9       44.109482      44.109482      88.218963          16040 
    134000   3595.4031      100135.64      830.21611      100510.4       100683.98      99212.548     -537.3228       207.56954     -978.98935      7454.0022      4728.7807      12182.783      171625.59      44.107998      44.107998      88.215997          16040 
    135000   3616.0081      101222.02      836.90694      101722.37      101603.22      100340.46     -1386.707       609.91944     -227.40932      7496.7205      4677.2177      12173.938      171509.72      44.09807       44.09807       88.19614           16040 
    136000   3593.8485      99954.674      843.59568      98973.09       100558.55      100332.39     -79.003833      535.80595      2820.2597      7450.7792      4632.4302      12083.209      171543.29      44.100947      44.100947      88.201894          16040 
    137000   3618.089       99286.248      850.28522      99012.066      99998.97       98847.708     -658.42174     -263.30104     -53.345833      7501.0347      4666.8611      12167.896      171803.22      44.12321       44.12321       88.246419          16040 
    138000   3556.458       99205.05       856.97555      99630.199      98063.353      99921.597     -3131.663       555.61603      715.63779      7373.2611      4612.7021      11985.963      171725.73      44.116575      44.116575      88.23315           16040 
    139000   3593.4209      95545.383      863.66454      95400.344      96146.22       95089.583     -2613.0412     -771.14321      310.32703      7449.8927      4722.3801      12172.273      172019.78      44.141741      44.141741      88.283482          16040 
    140000   3531.2796      97119.359      870.3555       97017.162      97269.9        97071.014     -2174.5909     -486.59444     -710.80019      7321.0612      4671.1074      11992.169      171767.62      44.120162      44.120162      88.240325          16040 
    141000   3570.8812      99104.494      877.04078      98680.96       98901.489      99731.034      1693.2263     -35.229944      1191.1811      7403.1633      4700.9434      12104.107      171708.05      44.115061      44.115061      88.230122          16040 
    142000   3568.386       96276.689      883.72377      96481.169      95483.421      96865.477      564.06503      280.66146      904.33063      7397.9902      4683.0258      12081.016      171895.35      44.131095      44.131095      88.262191          16040 
    143000   3661.4807      99190.766      890.41103      100187.85      98681.195      98703.25       381.50963      182.91538      1912.528       7590.9944      4682.4492      12273.444      171763.62      44.11982       44.11982       88.23964           16040 
    144000   3581.3818      100058.87      897.0994       98671.418      99098.522      102406.68      264.51081      890.69672      591.67733      7424.9332      4732.9438      12157.877      171614.44      44.107043      44.107043      88.214086          16040 
    145000   3594.9207      102887.27      903.78776      101093.54      104161.08      103407.19     -1451.0545     -1514.1202      969.89972      7453.002       4611.2559      12064.258      171298.95      44.079998      44.079998      88.159997          16040 
    146000   3608.395       101468.11      910.47748      100793.04      101564.99      102046.31      853.41981     -238.38408      946.56561      7480.937       4712.1552      12193.092      171584.6       44.104486      44.104486      88.208973          16040 
    147000   3588.9915      101873.48      917.17432      103501.13      100706.69      101412.63     -271.80841      153.10205      748.91414      7440.7095      4693.3695      12134.079      171526.84      44.099537      44.099537      88.199073          16040 
    148000   3581.7065      98265.998      923.87531      98777.817      98239.472      97780.705     -821.5597       1732.5197     -718.32279      7425.6063      4754.0814      12179.688      171813.95      44.124128      44.124128      88.248257          16040 
    149000   3585.836       97505.941      930.57782      98474.356      97403.208      96640.258      1222.8023      2275.6258      1593.6385      7434.1675      4750.1497      12184.317      171848.46      44.127082      44.127082      88.254165          16040 
    150000   3591.5285      95789.435      937.28173      95791.917      96113.752      95462.635     -1231.5183     -807.05077      694.25891      7445.9693      4630.7526      12076.722      171807.25      44.123555      44.123555      88.24711           16040 
    151000   3602.44        99761.803      943.98284      99792.29       99351.714      100141.41     -184.05666      1631.7399      675.87052      7468.5911      4744.9694      12213.561      171819.97      44.124644      44.124644      88.249288          16040 
    152000   3618.6063      100666.77      950.68428      100872.96      99300.163      101827.18      2260.1384     -1198.696      -680.79718      7502.1071      4652.716       12154.823      171621.84      44.107677      44.107677      88.215354          16040 
    153000   3599.2617      100657.65      957.38778      100463.49      100447.31      101062.16      780.22121      118.54594     -1211.257       7462.0019      4682.8889      12144.891      171533.76      44.10013       44.10013       88.20026           16040 
    154000   3582.0265      99718.941      964.08939      98068.262      101240.89      99847.668      1006.5512     -2215.7708     -1644.4326      7426.2697      4708.654       12134.924      171686.64      44.113228      44.113228      88.226456          16040 
    155000   3577.5093      103744.86      970.7908       103640.34      103312.26      104281.97      2276.6255      13.356194     -140.56368      7416.9047      4638.2903      12055.195      171353.82      44.084704      44.084704      88.169408          16040 
    156000   3601.4401      102657.18      977.49277      102992.37      101909.77      103069.4       1073.2942     -884.63446      1791.2434      7466.5181      4752.3264      12218.845      171493.97      44.09672       44.09672       88.193439          16040 
    157000   3561.662       102028.55      984.19525      101587.36      102875.8       101622.5      -503.07231     -2132.006      -1305.3305      7384.05        4756.2446      12140.295      171522.93      44.099202      44.099202      88.198403          16040 
    158000   3618.734       99200.845      990.89598      98842.63       99006.468      99753.439     -1148.9022      334.10742      1876.1614      7502.3719      4792.1722      12294.544      171814.38      44.124165      44.124165      88.248331          16040 
    159000   3587.8407      101613.93      997.59798      101094.6       101609.36      102137.83     -324.12254      599.12942     -2153.0871      7438.3237      4639.3007      12077.624      171572.61      44.103459      44.103459      88.206918          16040 
    160000   3563.3943      97284.165      1004.2992      96954.825      97541.463      97356.208      1852.5897     -1995.0395     -0.19078716     7387.6415      4694.0333      12081.675      171920.99      44.13329       44.13329       88.26658           16040 
    161000   3574.0164      92518.054      1010.9999      93408.242      93793.604      90352.316     -8.7095086      637.5328      -1176.9074      7409.6633      4585.9565      11995.62       172145.94      44.15253       44.15253       88.305061          16040 
    162000   3565.9486      94673.93       1017.7018      96030.946      93712.226      94278.618     -134.55488     -2026.1956      1495.9672      7392.9369      4689.0663      12082.003      172021.46      44.141886      44.141886      88.283771          16040 
    163000   3562.9814      95506.04       1024.4043      94614.336      96797.295      95106.49      -1590.0038     -870.41841     -205.24923      7386.7853      4643.2652      12030.05       171904.65      44.131892      44.131892      88.263784          16040 
    164000   3614.3699      97712.077      1031.1059      96866.862      97462.763      98806.607     -570.20842     -2178.4804     -710.90337      7493.3242      4699.8049      12193.129      171790.47      44.122119      44.122119      88.244237          16040 
    165000   3612.6989      101384.42      1037.8081      101465.28      101319.38      101368.58      31.695535      1978.1096      979.37528      7489.8599      4661.631       12151.491      171481.01      44.095609      44.095609      88.191218          16040 
    166000   3628.6204      100773.64      1044.5106      101971.85      99140.43       101208.64     -2467.063       2811.601       1789.9681      7522.8684      4769.6059      12292.474      171637.44      44.109013      44.109013      88.218027          16040 
    167000   3583.3205      100345.81      1051.2113      100335.61      99500.011      101201.83      288.11819      154.25648      1889.9032      7428.9525      4701.4005      12130.353      171545.52      44.101138      44.101138      88.202276          16040 
    168000   3615.513       103541.39      1057.9147      104173.57      104105.99      102344.61     -2009.685       224.78553     -273.13905      7495.694       4587.9569      12083.651      171287.69      44.079033      44.079033      88.158065          16040 
    169000   3624.4004      101710.63      1064.6145      101998.4       101239.78      101893.72     -1420.1158      1135.247       644.51261      7514.1195      4696.2982      12210.418      171562.09      44.102558      44.102558      88.205116          16040 
    170000   3597.1155      101627.59      1071.3186      102445.11      101538.86      100898.8      -648.56717     -1001.31       -1198.0809      7457.5523      4596.7884      12054.341      171399.36      44.088609      44.088609      88.177218          16040 
    171000   3532.7275      95086.276      1078.0227      95160.88       94794.561      95303.385     -363.90295      74.565287     -1414.3119      7324.0629      4828.4586      12152.521      172028.04      44.142448      44.142448      88.284896          16040 
    172000   3535.7757      97487.356      1084.7235      97633.889      98225.235      96602.945     -1115.6261      1774.5568     -1687.7643      7330.3825      4695.2357      12025.618      171789.91      44.122071      44.122071      88.244142          16040 
    173000   3581.7518      95874.831      1091.4258      94012.956      97309.647      96301.891      1337.2849      757.76477     -18.188223      7425.7003      4661.846       12087.546      171909.32      44.132291      44.132291      88.264582          16040 
    174000   3635.1108      97654.242      1098.1264      98437.226      96910.542      97614.957      79.115156      401.69996      1124.2595      7536.3244      4725.9625      12262.287      171871.55      44.129059      44.129059      88.258118          16040 
    175000   3614.9865      101724.53      1104.8288      101804.77      101316.92      102051.9      -2193.5498      2142.0238     -2624.8793      7494.6025      4618.5036      12113.106      171450.77      44.093017      44.093017      88.186033          16040 
    176000   3588.9434      99668.513      1111.5304      99380.67       100454.72      99170.152     -1706.7392     -115.21836     -2021.8009      7440.61        4675.9934      12116.603      171686.58      44.113223      44.113223      88.226446          16040 
    177000   3650.0902      97933.753      1118.2312      98405.193      97935.191      97460.874      1395.3164      1018.5838      957.40877      7567.3796      4719.0271      12286.407      171917.64      44.133003      44.133003      88.266006          16040 
    178000   3585.0058      93326.34       1124.9297      93809.167      92743.418      93426.433     -2801.2991      2408.4487      285.69963      7432.4464      4646.1313      12078.578      172162.72      44.153965      44.153965      88.307929          16040 
    179000   3585.6245      96504.608      1131.6245      95596.334      97643.848      96273.643      213.35015      585.65773     -428.95575      7433.7291      4606.1912      12039.92       171770.01      44.120367      44.120367      88.240735          16040 
    180000   3622.5663      95559.703      1138.326       95547.673      93821.658      97309.778      585.61953     -3537.576      -2457.2324      7510.3171      4664.4092      12174.726      171894.33      44.131009      44.131009      88.262018          16040 
    181000   3608.6757      100814.67      1145.0307      100279.53      101017.14      101147.36      351.00141      1885.6399     -2155.1235      7481.5189      4567.2246      12048.743      171515.61      44.098574      44.098574      88.197149          16040 
    182000   3588.9494      100829.93      1151.7338      100310.5       100517.95      101661.36     -1853.5764     -74.048925     -333.59837      7440.6224      4730.455       12171.077      171574.02      44.10358       44.10358       88.207159          16040 
    183000   3620.2546      98639.667      1158.4353      99345.684      96939.466      99633.851      343.51917      2458.9124      1068.4773      7505.5244      4586.8256      12092.35       171644.39      44.109609      44.109609      88.219218          16040 
    184000   3606.6938      98137.091      1165.1353      96996.013      98921.829      98493.43      -1893.1197      1246.7679     -724.93527      7477.4101      4615.1404      12092.551      171829.19      44.125434      44.125434      88.250867          16040 
    185000   3621.6944      99044.038      1171.8347      98074.319      99893.581      99164.215      358.13555     -1367.9192      714.72667      7508.5095      4705.8568      12214.366      171778.26      44.121073      44.121073      88.242146          16040 
    186000   3609.5055      98690.25       1178.535       99865.051      97579.425      98626.274     -1010.5623      1355.0147     -1014.0286      7483.2394      4670.5727      12153.812      171732.95      44.117193      44.117193      88.234386          16040 
    187000   3583.8022      100753.6       1185.2351      101198.82      100654.55      100407.42     -569.07104     -486.73669      899.95862      7429.9512      4702.7229      12132.674      171513.51      44.098394      44.098394      88.196789          16040 
    188000   3610.1866      100131.17      1191.9354      98933.063      100272.45      101188        -1634.3559      1486.4338     -501.96724      7484.6514      4754.8965      12239.548      171607.35      44.106436      44.106436      88.212871          16040 
    189000   3589.7769      99150.981      1198.6371      99022.162      99179.92       99250.861     -148.77066      127.50799     -201.12966      7442.3378      4656.1043      12098.442      171696.21      44.114047      44.114047      88.228095          16040 
    190000   3571.7698      97926.25       1205.3378      97500.492      98341.027      97937.231      734.74432      337.97146     -1337.694       7405.0054      4586.5076      11991.513      171746.32      44.118338      44.118338      88.236677          16040 
    191000   3596.0161      95549.774      1212.0408      96243.162      94708.867      95697.293     -905.43277      692.2418       1302.6018      7455.2731      4656.0529      12111.326      172008.47      44.140774      44.140774      88.281548          16040 
    192000   3622.9427      99978.27       1218.7423      99638.613      100439.96      99856.235     -817.69433      59.241585     -420.6622       7511.0975      4546.7253      12057.823      171575.05      44.103668      44.103668      88.207336          16040 
    193000   3561.9722      100403.31      1225.4435      101235.19      99600.326      100374.42      4233.5805     -2057.1771     -962.38898      7384.693       4704.3071      12089          171513.94      44.098432      44.098432      88.196864          16040 
    194000   3615.58        102123.7       1232.1415      101715.35      101599.59      103056.17     -458.75589      1160.5032     -0.51205468     7495.833       4637.266       12133.099      171355.25      44.084827      44.084827      88.169654          16040 
    195000   3629.1254      105360.59      1238.8407      107051.23      104396.61      104633.93      307.88358      2804.0373      948.22795      7523.9153      4666.9956      12190.911      171168.89      44.068839      44.068839      88.137678          16040 
    196000   3621.4464      102729.5       1245.5381      102840.67      103230         102117.84     -1381.8877     -564.00873     -451.38077      7507.9953      4712.3558      12220.351      171464.27      44.094174      44.094174      88.188349          16040 
    197000   3582.2084      100667.28      1252.2369      101647.72      101381.77      98972.364      1051.9287     -786.12591      2616.9229      7426.6469      4596.3993      12023.046      171513.4       44.098385      44.098385      88.19677           16040 
    198000   3600.8042      97155.185      1258.9379      98193.964      96589.532      96682.059     -3035.5907      2072.9876      1174.1113      7465.1997      4649.353       12114.553      171739.82      44.117781      44.117781      88.235563          16040 
    199000   3574.2784      97070.018      1265.6355      95854.45       97703.404      97652.2       -351.71452      605.21021     -986.8197       7410.2064      4600.6759      12010.882      171711.07      44.11532       44.11532       88.230639          16040 
    200000   3582.5668      95965.697      1272.3413      95004.68       96766.049      96126.361     -1976.5047      1820.5109      204.49521      7427.39        4776.9616      12204.352      172028.48      44.142486      44.142486      88.284972          16040 
    201000   3563.899       100975.26      1279.0383      101309.5       100311.72      101304.57      1447.9739     -195.99323     -979.47482      7388.6878      4647.971       12036.659      171412.91      44.089771      44.089771      88.179542          16040 
    202000   3573.1753      97604.089      1285.7337      97624.656      96921.559      98266.051      970.18577      969.57491      1426.4889      7407.9194      4743.5874      12151.507      171830.1       44.125511      44.125511      88.251022          16040 
    203000   3573.0802      100161.79      1292.4315      100079.72      99886.873      100518.78     -594.83001     -214.64158      7.9653883      7407.7223      4615.1442      12022.866      171548.88      44.101426      44.101426      88.202851          16040 
    204000   3610.0972      100926.05      1299.129       100662.28      101839.51      100276.38      350.92888     -666.26005      857.55452      7484.466       4750.9898      12235.456      171669.47      44.111757      44.111757      88.223514          16040 
    205000   3611.3606      101668.7       1305.8251      102966.97      100740.54      101298.59      1642.6671      301.34462      174.19014      7487.0853      4601.2778      12088.363      171353.46      44.084673      44.084673      88.169346          16040 
    206000   3623.5715      102306.14      1312.5206      101668.43      102260.87      102989.14      2308.0462     -1016.0077     -1155.5688      7512.401       4589.2341      12101.635      171280.05      44.078377      44.078377      88.156754          16040 
    207000   3600.7982      99558.952      1319.2178      100067.98      99326.723      99282.157     -314.48768      1357.2768     -597.74161      7465.1873      4673.6772      12138.865      171531.43      44.09993       44.09993       88.199861          16040 
    208000   3570.5412      99271.554      1325.9121      99747.256      98613.975      99453.432     -1466.2054     -1643.1913     -506.05954      7402.4583      4676.5547      12079.013      171705.52      44.114845      44.114845      88.22969           16040 
    209000   3607.61        97847.417      1332.6082      97971.812      97536.261      98034.178     -403.55585      1029.3776     -1114.1722      7479.3095      4616.0377      12095.347      171669.08      44.111723      44.111723      88.223447          16040 
    210000   3628.3236      98032.597      1339.3028      100694.44      97393.175      96010.173      866.06441     -604.34318      714.47928      7522.253       4555.1904      12077.443      171692.16      44.113701      44.113701      88.227401          16040 
    211000   3569.4551      99620.737      1345.993       97671.892      99908.321      101282         450.29733      580.54663      1122.9278      7400.2068      4637.9738      12038.181      171635.31      44.108831      44.108831      88.217662          16040 
    212000   3572.0105      96019.843      1352.695       96273.779      96149.853      95635.898      87.780307      1713.7484     -1522.1343      7405.5045      4570.2138      11975.718      171774.85      44.120781      44.120781      88.241563          16040 
    213000   3591.2197      99682.602      1359.3981      99429.245      100998.7       98619.86      -581.3984       181.04366     -602.8493       7445.3291      4648.7893      12094.118      171649.48      44.110045      44.110045      88.220089          16040 
    214000   3651.9037      100992.02      1366.0983      101431.53      101012.14      100532.38     -413.5876       298.47673      190.24779      7571.1393      4637.6533      12208.793      171589.7       44.104923      44.104923      88.209847          16040 
    215000   3568.8322      103383.73      1372.7984      102589.69      102789.87      104771.64     -94.72147      -1545.1345      456.70976      7398.9154      4673.4194      12072.335      171264.92      44.077079      44.077079      88.154158          16040 
    216000   3614.0741      102343.03      1379.4986      102335.07      102170.39      102523.62     -429.03305     -1843.3609     -1117.9243      7492.711       4679.37        12172.081      171551.82      44.101678      44.101678      88.203356          16040 
    217000   3632.7354      100957.59      1386.1965      100461.54      100976.38      101434.86     -620.74051     -53.029473      185.22269      7531.3996      4631.6969      12163.097      171519.85      44.098938      44.098938      88.197875          16040 
    218000   3618.6148      100079.2       1392.8964      99559.148      99134.538      101543.92      471.75251      68.253767     -898.24894      7502.1247      4654.0116      12156.136      171567.04      44.102982      44.102982      88.205964          16040 
    219000   3597.3291      100209.86      1399.5972      100506.1       100215.95      99907.516     -996.03106      756.01599     -2190.8486      7457.9953      4702.6924      12160.688      171535.39      44.10027       44.10027       88.200539          16040 
    220000   3549.9077      103134.81      1406.2973      103742.37      103966.88      101695.17      385.16735     -862.33405     -199.86748      7359.681       4539.9643      11899.645      171143.18      44.066633      44.066633      88.133266          16040 
    221000   3605.5065      102790.26      1412.9974      104850.01      101055.16      102465.62     -363.14358      786.17493      1259.9395      7474.9486      4695.4684      12170.417      171370.9       44.086169      44.086169      88.172338          16040 
    222000   3597.6469      99236.341      1419.6969      100642.41      99062.711      98003.901     -1634.0431     -239.1913       565.7625       7458.654       4628.3082      12086.962      171603.88      44.106138      44.106138      88.212276          16040 
    223000   3608.6229      94957.226      1426.3974      94242.571      96243.906      94385.202     -568.71989     -305.14734      206.03651      7481.4095      4565.1948      12046.604      171887.73      44.130444      44.130444      88.260887          16040 
    224000   3570.1356      97059.081      1433.0962      97135.385      96507.994      97533.863     -365.92467      960.05622     -2619.2864      7401.6175      4535.9463      11937.564      171811.48      44.123917      44.123917      88.247834          16040 
    225000   3637.793       97038.499      1439.7942      97156.805      96056.02       97902.671     -1711.7786      2224.8225     -2067.6654      7541.8851      4676.6738      12218.559      171826.45      44.125199      44.125199      88.250398          16040 
    226000   3605.0548      99896.023      1446.4926      100058.15      98901.949      100727.97     -635.47159     -63.336304     -536.48497      7474.012       4660.2156      12134.228      171524.84      44.099365      44.099365      88.198731          16040 
    227000   3612.0702      99367.206      1453.1875      98607.663      99539.304      99954.652      57.507819     -925.67801     -589.68585      7488.5564      4670.5369      12159.093      171589.06      44.104869      44.104869      88.209738          16040 
    228000   3598.7185      98738.469      1459.8855      98222.946      97840.262      100152.2      -836.25638      584.59364      30.455343      7460.8757      4700.6112      12161.487      171635         44.108805      44.108805      88.217609          16040 
    229000   3557.638       101319.84      1466.5821      102932.83      99663.228      101363.47      251.69739      679.61209     -544.49839      7375.7074      4597.4169      11973.124      171423.22      44.090655      44.090655      88.18131           16040 
    230000   3620.283       100311.95      1473.2784      100362.46      100493.78      100079.61     -1803.8437     -357.08883      1010.6732      7505.5833      4661.4378      12167.021      171579.41      44.104042      44.104042      88.208084          16040 
    231000   3635.1375      102486.39      1479.9747      102315.05      102267.37      102876.76      1482.064      -634.58591      119.77164      7536.3797      4668.417       12204.797      171457.92      44.09363       44.09363       88.187259          16040 
    232000   3596.1575      103171.78      1486.6674      103719.24      103370.41      102425.71      818.42703     -219.61325     -549.22755      7455.5662      4597.5478      12053.114      171196.92      44.071245      44.071245      88.14249           16040 
    233000   3614.8114      99442.014      1493.3616      100406.36      98148.082      99771.605      723.75827      293.16153     -325.1827       7494.2395      4671.511       12165.75       171761.38      44.119628      44.119628      88.239255          16040 
    234000   3570.7712      97968.656      1500.0548      97599.731      97969.598      98336.64       775.63806      167.87067     -650.01366      7402.9353      4607.7849      12010.72       171713.52      44.11553       44.11553       88.231059          16040 
    235000   3633.1062      97549.221      1506.7473      97868.911      97007.517      97771.234      2625.555       112.80626      236.32384      7532.1683      4527.2425      12059.411      171768.92      44.120273      44.120273      88.240547          16040 
    236000   3602.8466      97522.235      1513.4397      98532.035      97450.008      96584.662      1057.138      -2660.8815     -1631.3654      7469.434       4642.4538      12111.888      171840.43      44.126396      44.126396      88.252791          16040 
    237000   3568.9754      100097.54      1520.1327      101041.45      99017.88       100233.3      -743.838       -2411.3136     -220.93017      7399.2121      4587.1983      11986.41       171409.45      44.089474      44.089474      88.178949          16040 
    238000   3622.2427      100697.98      1526.8245      101861.87      100474.07      99758.008      1044.5782     -504.93062      576.99722      7509.6462      4579.6328      12089.279      171496.65      44.09695       44.09695       88.193899          16040 
    239000   3584.4616      102531.2       1533.5148      101803.56      102604.32      103185.71     -145.09439     -3251.4136     -1188.8466      7431.3182      4792.4376      12223.756      171411.22      44.089626      44.089626      88.179252          16040 
    240000   3613.1904      107464.51      1540.2031      106939.9       107643.85      107809.79     -219.18938     -2295.7722     -940.21992      7490.8788      4694.2311      12185.11       170972.62      44.051989      44.051989      88.103978          16040 
    241000   3604.1998      104560.99      1546.8927      105879.95      104101.51      103701.51     -1744.9008     -671.12574     -2397.3556      7472.2395      4704.2076      12176.447      171316.41      44.081496      44.081496      88.162991          16040 
    242000   3614.2916      101519.71      1553.5827      101895.65      101233.16      101430.31     -22.957472      526.82349      1016.7592      7493.1618      4719.6394      12212.801      171547.09      44.101272      44.101272      88.202545          16040 
    243000   3568.4931      100581.81      1560.27        100479.82      100024.66      101240.96      490.77635      1716.2904     -1097.2565      7398.2123      4696.7028      12094.915      171580.79      44.10416       44.10416       88.208319          16040 
    244000   3581.6526      99546.036      1566.9608      101139.18      99002.041      98496.882      501.22695      797.1984      -45.51155       7425.4946      4575.9475      12001.442      171536.51      44.100366      44.100366      88.200731          16040 
    245000   3614.9526      95592.61       1573.6524      95770.622      95905.559      95101.649      1518.3837     -368.85168     -1222.3166      7494.5323      4617.6592      12112.192      171931.38      44.134179      44.134179      88.268357          16040 
    246000   3559.748       98200.912      1580.346       98039.081      97744.277      98819.377      3073.161       528.2084      -662.54112      7380.0818      4610.9466      11991.028      171635.1       44.108813      44.108813      88.217626          16040 
    247000   3581.3644      100137.17      1587.0381      99809.489      102144.59      98457.433      2455.0101      422.42991     -1278.8993      7424.8971      4676.6343      12101.531      171563.33      44.102664      44.102664      88.205327          16040 
    248000   3599.7102      98698.545      1593.7287      99357.631      97756.338      98981.666     -635.66747     -1122.5569      817.86373      7462.9316      4633.6877      12096.619      171627.63      44.108173      44.108173      88.216346          16040 
    249000   3619.2572      98401.092      1600.4226      99314.539      97144.01       98744.728     -1458.4921     -257.35443      1063.455       7503.4565      4561.5589      12065.015      171591.15      44.105047      44.105047      88.210095          16040 
    250000   3590.2749      98744.352      1607.1112      98480.001      98643.589      99109.465     -110.71298     -987.49992     -164.43595      7443.3704      4669.477       12112.847      171594.2       44.105309      44.105309      88.210618          16040 
    251000   3577.5376      102328.57      1613.801       103594.23      101727.26      101664.21     -357.03444     -1854.4506     -787.4294       7416.9634      4619.3018      12036.265      171257.32      44.076427      44.076427      88.152854          16040 
    252000   3590.1002      100002.38      1620.4903      100654.49      101038.77      98313.882     -1799.2139     -497.02537     -2143.1738      7443.0081      4725.2898      12168.298      171618.45      44.107387      44.107387      88.214773          16040 
    253000   3604.8072      101721.82      1627.1795      102560.58      101980.22      100624.67      1057.0019     -1432.8896     -1913.512       7473.4987      4632.9583      12106.457      171309.23      44.08088       44.08088       88.16176           16040 
    254000   3595.9268      102311.86      1633.8684      102258.43      101951.22      102725.92     -924.7714       87.321111     -239.36688      7455.0879      4742.7939      12197.882      171443.86      44.092425      44.092425      88.18485           16040 
    255000   3602.0075      102647.84      1640.5584      102550.63      102417.84      102975.05      543.97934      363.83103      752.40642      7467.6945      4608.8849      12076.579      171362.4       44.08544       44.08544       88.17088           16040 
    256000   3590.7659      99338.371      1647.2463      100677.01      97500.823      99837.275     -901.0729       31.448258     -1190.8778      7444.3884      4703.9952      12148.384      171630.03      44.108379      44.108379      88.216758          16040 
    257000   3618.2089      97126.54       1653.9347      97751.622      97975.131      95652.867      1389.5449      2148.8337     -1873.2171      7501.2832      4608.7897      12110.073      171802.56      44.123153      44.123153      88.246307          16040 
    258000   3594.4537      96012.661      1660.6231      96885.368      94595.601      96557.015      327.5791      -91.428775     -516.6868       7452.0338      4574.2898      12026.324      171917.08      44.132955      44.132955      88.26591           16040 
    259000   3605.3476      94665.641      1667.3091      94097.957      95513.234      94385.731     -2335.5612     -787.50973      970.71162      7474.6191      4707.7128      12182.332      172112.55      44.149675      44.149675      88.29935           16040 
    260000   3586.7465      101844.66      1673.9952      101756.85      101374.53      102402.6      -443.37912     -1811.9954      104.11481      7436.0552      4596.6654      12032.721      171368.07      44.085926      44.085926      88.171852          16040 
    261000   3631.7517      101644.45      1680.6845      101820.77      100569.14      102543.44     -185.04363      853.14524     -759.79798      7529.3602      4658.1647      12187.525      171552.74      44.101756      44.101756      88.203513          16040 
    262000   3628.7596      105782.91      1687.3728      105977.41      103822.95      107548.38      1264.6286      817.68868     -1964.5556      7523.1571      4534.2164      12057.373      171049.33      44.058577      44.058577      88.117153          16040 
    263000   3605.8311      104231.77      1694.0602      102161.27      104571.91      105962.12      819.80642     -141.58761      1620.8243      7475.6216      4564.8189      12040.441      171143.58      44.066667      44.066667      88.133335          16040 
    264000   3603.3569      100823.28      1700.7482      100594.97      102621.39      99253.48       743.02138     -889.64618     -1511.4221      7470.492       4706.08        12176.572      171594.92      44.105371      44.105371      88.210741          16040 
    265000   3621.1169      100959.15      1707.4351      100157.07      101737.86      100982.5      -1120.7634     -1374.2267      110.04248      7507.312       4683.6129      12190.925      171527.8       44.09962       44.09962       88.199239          16040 
    266000   3594.8881      100528.63      1714.1237      100097.97      100671.41      100816.5      -852.26273     -424.17083      1182.9781      7452.9345      4698.3264      12151.261      171607.89      44.106482      44.106482      88.212964          16040 
    267000   3628.4224      101279.94      1720.8136      102149.12      100844.3       100846.38     -729.91041      1655.3421      531.61424      7522.4578      4508.3997      12030.858      171365.58      44.085713      44.085713      88.171426          16040 
    268000   3643.3025      98971.859      1727.5023      99270.096      97612.036      100033.45     -162.43795     -1046.4334     -2125.4648      7553.3073      4606.9679      12160.275      171715.33      44.115685      44.115685      88.23137           16040 
    269000   3587.0527      99082.637      1734.1912      98819.155      98237.763      100190.99      951.12        -128.00798     -1195.4578      7436.6902      4586.9643      12023.654      171540.22      44.100684      44.100684      88.201367          16040 
    270000   3577.9786      98245.039      1740.8811      98719.631      97517.909      98497.576     -1184.5627     -314.87355      147.42599      7417.8776      4638.9048      12056.782      171670.16      44.111816      44.111816      88.223632          16040 
    271000   3622.9699      101025.69      1747.5699      101632.89      99495.172      101949.02     -843.79799      885.50965      369.94253      7511.1537      4747.1161      12258.27       171547.86      44.101338      44.101338      88.202677          16040 
    272000   3597.8293      105713.33      1754.2589      104643.45      106205.98      106290.56      616.87751      3071.254      -621.80969      7459.0322      4636.5658      12095.598      171044.01      44.05812       44.05812       88.11624           16040 
    273000   3621.8737      103083.53      1760.9486      102950.76      102850.75      103449.08      545.67544      122.82265      1084.1651      7508.8811      4709.4242      12218.305      171382.3       44.087146      44.087146      88.174293          16040 
    274000   3554.2916      101693.97      1767.6285      101824.59      100724.99      102532.32     -1996.8823     -2188.2046      469.0143       7368.7697      4691.9096      12060.679      171403.2       44.088938      44.088938      88.177876          16040 
    275000   3598.8696      98294.71       1774.3155      97508.964      98569.617      98805.55      -921.84038     -2398.7567      323.22466      7461.1888      4650.9654      12112.154      171700.96      44.114454      44.114454      88.228909          16040 
    276000   3610.2484      94866.844      1781.0094      94029.892      94908.723      95661.916      22.565938     -327.44443      514.92465      7484.7794      4698.2518      12183.031      172048.27      44.144178      44.144178      88.288356          16040 
    277000   3566.2078      99183.061      1787.7011      99681.811      98619.704      99247.667     -188.80624      465.73596     -448.76015      7393.4743      4665.0965      12058.571      171722.78      44.116322      44.116322      88.232645          16040 
    278000   3606.7168      100407.25      1794.3957      101396.18      99329.353      100496.22     -1043.9228     -958.72911     -1837.3489      7477.4577      4651.255       12128.713      171610.35      44.106693      44.106693      88.213386          16040 
    279000   3614.7807      100138.32      1801.0958      100479.66      100952.7       98982.603      340.09332     -948.88013      590.70397      7494.1759      4627.1888      12121.365      171509.17      44.098022      44.098022      88.196045          16040 
    280000   3630.6012      103359.62      1807.7978      103315.92      103165.44      103597.51     -1478.0159      524.98821     -303.52366      7526.975       4640.9587      12167.934      171293.09      44.079496      44.079496      88.158991          16040 
    281000   3592.3859      106607.43      1814.4995      106189.95      105847.66      107784.68     -708.52574      3269.4265     -518.71858      7447.7468      4628.3484      12076.095      170949.37      44.049992      44.049992      88.099985          16040 
    282000   3586.1528      101066.49      1821.2031      100698.56      100484.78      102016.13     -2697.9475     -2837.7963      765.50104      7434.8244      4666.1947      12101.019      171416.5       44.090079      44.090079      88.180158          16040 
    283000   3614.1484      100341.84      1827.9065      100021.8       101578.63      99425.089     -118.75643     -1624.0349     -1456.431       7492.865       4689.4239      12182.289      171631.42      44.108498      44.108498      88.216996          16040 
    284000   3572.2695      100718.41      1834.6107      101036.55      101742.08      99376.611     -83.422029      1258.9949     -1071.7792      7406.0416      4621.1175      12027.159      171418.56      44.090255      44.090255      88.180511          16040 
    285000   3589.6642      95056.513      1841.3149      95828.757      94487.725      94853.058     -453.26077     -2059.5634     -390.6903       7442.1042      4691.4803      12133.584      172068.1       44.145875      44.145875      88.291749          16040 
    286000   3586.8291      94168.508      1848.0183      95253.995      92948.689      94302.841     -569.42576      2242.4269      950.42993      7436.2266      4645.0521      12081.279      172040         44.143471      44.143471      88.286942          16040 
[...]
   3930000   3087.7586      98834.089      6730.001       99053.62       94815.216      102633.43     -1378.4549     -1183.2602     -2378.5728      6401.5518      12035.988      18437.539      191984.49      45.449886      45.449886      92.939545          16040 
   3931000   3080.7215      100457.68      6737.1223      103511.86      94793.611      103067.56      919.66932      2182.034       175.64286      6386.9626      12057.625      18444.587      191875.58      45.441291      45.441291      92.921969          16040 
   3932000   3108.1557      99950.307      6744.2491      101077.07      97505.491      101268.36      1380.0353      424.08556     -308.57889      6443.8392      12027.714      18471.553      191437.71      45.406697      45.406697      92.85123           16040 
   3933000   3074.144       101141.62      6751.3752      103271.32      99068.69       101084.86     -1341.1239     -618.85644     -1843.8677      6373.326       12097.024      18470.35       191452.89      45.407897      45.407897      92.853684          16040 
   3934000   3054.2908      102200.44      6758.4999      105073.45      99455.285      102072.6       307.03359     -2379.3091     -1229.0546      6332.1664      12102.281      18434.447      192002.63      45.451317      45.451317      92.942472          16040 
   3935000   3086.5897      98065.904      6765.6272      99362.564      94385.541      100449.61     -8.7288203     -1367.6824     -195.4215       6399.1286      12044.896      18444.025      191846.32      45.43898       45.43898       92.917245          16040 
   3936000   3082.047       99034.011      6772.7572      98128.859      97121.895      101851.28      804.71555      718.92314      923.60523      6389.7105      12058.052      18447.763      191784.77      45.43412       45.43412       92.907306          16040 
   3937000   3075.1183      96282.341      6779.8807      97927.103      92440.374      98479.546      490.52976     -308.09879     -2831.2055      6375.346       12032.48       18407.826      192426.98      45.484777      45.484777      93.010894          16040 
   3938000   3095.716       100529.43      6787.0084      103546.41      96334.338      101707.55      551.71353      105.54179     -2083.1513      6418.0491      12045.848      18463.897      191519.12      45.413133      45.413133      92.86439           16040 
   3939000   3062.7341      98804.426      6794.1377      100088.62      92554.568      103770.09      834.73325      581.23151      1184.8964      6349.6709      12073.916      18423.587      192168.21      45.464379      45.464379      92.969182          16040 
   3940000   3077.0738      95406.616      6801.2666      97736.465      92437.919      96045.464      1594.6917     -1491.2256      1263.1176      6379.4         12052.046      18431.446      192043.45      45.454538      45.454538      92.949059          16040 
   3941000   3081.3401      98703.446      6808.3978      97941.297      96357.177      101811.86     -3355.7136     -1714.9779      3348.2383      6388.2451      12046.694      18434.939      191977.07      45.4493        45.4493        92.938348          16040 
   3942000   3099.0812      101876.88      6815.5225      105676.74      98238.816      101715.09      1940.5924     -294.18733      1636.1328      6425.0259      12057.317      18482.343      191229.66      45.390242      45.390242      92.817581          16040 
   3943000   3075.9348      101583.13      6822.6412      104044.65      97587.255      103117.49     -1495.0212     -1863.3114      67.500559      6377.0387      12063.107      18440.146      191896.05      45.442906      45.442906      92.925273          16040 
   3944000   3089.5075      98907.157      6829.7659      99213.284      101075.92      96432.27      -1320.672      -153.82371     -2339.5917      6405.1776      12042.98       18448.157      191758.67      45.432059      45.432059      92.903091          16040 
   3945000   3088.2162      98927.022      6836.8944      99474.102      96084.426      101222.54      1681.2697     -564.13147      903.54395      6402.5005      12003.777      18406.278      192448.74      45.486492      45.486492      93.014399          16040 
   3946000   3084.5783      100913.64      6844.025       101820.46      101077.07      99843.396      1811.047       775.95762      400.75374      6394.9584      12048.85       18443.808      191843.46      45.438755      45.438755      92.916783          16040 
   3947000   3075.4063      102756.92      6851.1573      102169.06      102590.63      103511.08      207.02952     -2006.365       547.98974      6375.9429      12078.405      18454.348      191674.43      45.425405      45.425405      92.889485          16040 
   3948000   3080.4068      100310.24      6858.3066      102406.7       95439.382      103084.64      2129.8733     -1692.5766     -1658.476       6386.31        12074.611      18460.921      191568.01      45.416997      45.416997      92.872291          16040 
   3949000   3085.2539      101950.13      6865.4413      105069.72      99279.642      101501.03     -1993.8225      589.68521      1158.3338      6396.359       12077.818      18474.177      191362.01      45.400712      45.400712      92.83899           16040 
   3950000   3071.8276      99008.896      6872.5788      99178.28       97269.434      100578.97      133.13698      1499.6066      234.64179      6368.5236      12055.944      18424.468      192158.76      45.463634      45.463634      92.967659          16040 
   3951000   3081.3561      101389.84      6879.7103      102735.21      99587.601      101846.7       918.35651      1427.0737      2792.943       6388.2782      12061.634      18449.912      191743.52      45.430863      45.430863      92.900645          16040 
   3952000   3057.3174      101129.9       6886.8498      100683.42      98265.135      104441.15      1522.9707      7.1263797     -1808.9519      6338.4411      12077.47       18415.912      192282.04      45.473354      45.473354      92.987535          16040 
   3953000   3062.0954      101138.37      6893.9855      102699.69      99702.209      101013.2      -1438.0688      14.363889     -888.17942      6348.3467      12122.755      18471.102      191402.22      45.403891      45.403891      92.845491          16040 
   3954000   3071.8192      102070.31      6901.1237      104031.82      97620.785      104558.32     -3293.3181      512.3162       340.8897       6368.5062      12069.479      18437.985      191925.08      45.445198      45.445198      92.929958          16040 
   3955000   3059.0026      100684.47      6908.2664      99795.871      101102.82      101154.71     -2140.0874      1616.9126      2073.9114      6341.9349      12089.636      18431.571      192002.38      45.451298      45.451298      92.942433          16040 
   3956000   3072.8368      100335.11      6915.4017      102922.78      98019.726      100062.83      103.37809      948.29128      917.16979      6370.616       12053.873      18424.489      192104.8       45.459378      45.459378      92.958955          16040 
   3957000   3076.7374      100302.59      6922.5382      100119.15      98369.071      102419.54      1263.0717      63.776463     -2219.5318      6378.7025      12042.048      18420.75       192172.42      45.464712      45.464712      92.969862          16040 
   3958000   3070.7749      101227.5       6929.665       103303.14      97556.978      102822.39      771.71047     -1604.4612      59.913397      6366.3412      12047.695      18414.037      192269         45.472326      45.472326      92.985433          16040 
   3959000   3079.5346      101743.46      6936.8062      102839.28      98068.535      104322.57      363.81951      136.45703      385.73617      6384.5018      12050.238      18434.74       191924.08      45.445119      45.445119      92.929797          16040 
   3960000   3074.9968      100221.04      6943.9432      101335.19      95256.024      104071.92      772.88338     -58.799781     -571.51099      6375.094       12037.013      18412.107      192289.72      45.47396       45.47396       92.988773          16040 
   3961000   3060.2002      98446.071      6951.0744      97936.773      96535.269      100866.17     -162.10241      2347.2741      842.04851      6344.4177      12075.24       18419.657      192165.18      45.46414       45.46414       92.968693          16040 
   3962000   3088.3141      98814.193      6958.2054      100496.35      97354.152      98592.08      -60.655631      974.50712      1704.4793      6402.7035      11987.544      18390.247      192637.28      45.501341      45.501341      93.044764          16040 
   3963000   3072.3576      101171.53      6965.3403      100800.25      101340.51      101373.84      834.05533     -2295.4828     -698.13982      6369.6225      12069.893      18439.516      191847.22      45.439051      45.439051      92.917389          16040 
   3964000   3057.458       99804.99       6972.4747      98914.302      98333.891      102166.78     -2160.337       446.72403      466.04426      6338.7326      12066.449      18405.182      192384.94      45.481465      45.481465      93.00412           16040 
   3965000   3076.2758      101967.1       6979.6028      105243.29      98741.972      101916.03     -1081.9193     -199.97761     -725.73208      6377.7456      12062.429      18440.175      191827.47      45.437492      45.437492      92.914201          16040 
   3966000   3113.876       101990.49      6986.7373      99215.152      100836.55      105919.76      1091.4571      1624.0811      55.442163      6455.6984      11966.089      18421.788      192123.01      45.460814      45.460814      92.961892          16040 
   3967000   3072.3437      100111.26      6993.8697      103541.99      98022.598      98769.2        538.32772     -2252.9287     -439.66972      6369.5936      12045.212      18414.805      192237.43      45.469837      45.469837      92.980343          16040 
   3968000   3064.2857      101075.31      7000.9939      101476.99      96755.376      104993.57      912.92555      304.91121      1613.4441      6352.8878      12038.959      18391.847      192583.39      45.497098      45.497098      93.036088          16040 
   3969000   3101.4966      99507.753      7008.1359      103607.62      95176.497      99739.139     -352.8626      -1310.7108      1457.3205      6430.0336      11986.231      18416.265      192212.55      45.467875      45.467875      92.976332          16040 
   3970000   3053.2226      95813.869      7015.2646      96176.803      94151.663      97113.139      1300.5363     -2102.6981      3243.5477      6329.9518      12040.775      18370.727      192939.72      45.525141      45.525141      93.093433          16040 
   3971000   3093.8565      99959.125      7022.3972      100218.4       99285.723      100373.25     -288.72578      1152.027       74.367635      6414.1941      11986.99       18401.184      192448.23      45.486452      45.486452      93.014318          16040 
   3972000   3098.2737      102603.16      7029.5329      105121.31      97713.22       104974.97      2014.627      -2995.5976      1865.7702      6423.3518      11999.266      18422.618      192105.6       45.459441      45.459441      92.959085          16040 
   3973000   3091.8592      100939.01      7036.6579      103855.54      96620.964      102340.53     -662.90993      3513.6892      133.10289      6410.0532      11998.973      18409.026      192320.15      45.476359      45.476359      92.993679          16040 
   3974000   3076.6587      101797.22      7043.7966      103495.9       100685.8       101209.97     -1057.5717      3333.9412     -2475.234       6378.5394      12056.159      18434.699      191908.03      45.443851      45.443851      92.927205          16040 
   3975000   3086.327       101764.1       7050.9284      104319.12      99747.562      101225.61      1238.0681      928.57522     -2501.7484      6398.5838      12030.445      18429.028      191994.25      45.450657      45.450657      92.941121          16040 
   3976000   3086.8114      100252.37      7058.0678      99138.67       101175.84      100442.59     -354.14121      1379.8178     -2461.3204      6399.5882      12003.161      18402.749      192399.34      45.482599      45.482599      93.006441          16040 
   3977000   3108.6837      98349.624      7065.2041      99304.415      97109.874      98634.583      2140.2499     -2476.4966      1734.2399      6444.9338      11951.764      18396.698      192503.2       45.490782      45.490782      93.023172          16040 
   3978000   3120.9456      103739.06      7072.3428      103546.61      102135.45      105535.12     -88.308749     -67.165054     -283.67259      6470.3552      11971.202      18441.557      191780.01      45.433744      45.433744      92.906537          16040 
   3979000   3098.068       99297.356      7079.4795      99773.269      99496.19       98622.609      1239.3754      297.0534      -95.729627      6422.9254      11972.318      18395.243      192518.21      45.491964      45.491964      93.02559           16040 
   3980000   3112.2145      99974.743      7086.618       100101.65      98700.444      101122.14      2074.0917      1016.5516     -314.00709      6452.2539      11937.105      18389.358      192605.67      45.498852      45.498852      93.039675          16040 
   3981000   3128.2441      100485.89      7093.7545      101583.51      98802.944      101071.22      1588.3621     -3222.6688     -834.44101      6485.4866      11931.304      18416.791      192156.46      45.463453      45.463453      92.967288          16040 
   3982000   3105.9627      96402.332      7100.8906      97875.46       92459.789      98871.747     -2103.7282     -726.4619      -1775.4713      6439.2927      11910.983      18350.276      193213.92      45.546697      45.546697      93.137513          16040 
   3983000   3113.6065      99688.774      7108.0279      99940.866      98232.529      100892.93      852.11684      326.47853     -444.38464      6455.1398      11943.102      18398.242      192448.74      45.486492      45.486492      93.0144            16040 
   3984000   3095.7284      97963.587      7115.1607      99912.819      94296.338      99681.604     -1409.4941      1243.9281      2412.5947      6418.0748      11966.772      18384.847      192661.69      45.503263      45.503263      93.048694          16040 
   3985000   3104.5028      98872.403      7122.2953      102362.31      95416.797      98838.101      2196.7514     -1221.776      -2874.9484      6436.266       11953.08       18389.346      192582.57      45.497033      45.497033      93.035956          16040 
   3986000   3119.5419      99919.318      7129.4297      100054.33      98500.278      101203.35     -4023.0137      1844.9512      2677.7883      6467.4451      11910.329      18377.774      192764.86      45.511384      45.511384      93.065301          16040 
   3987000   3098.4457      102110.03      7136.5648      102279.11      101151.67      102899.29      130.59594     -2086.379      -172.98753      6423.7084      11972.561      18396.269      192455.99      45.487063      45.487063      93.015568          16040 
   3988000   3108.3395      96957.324      7143.7002      98022.657      95993.74       96855.576      2145.7938     -1219.7711      133.66201      6444.2203      11924.529      18368.749      192893.81      45.52153       45.52153       93.086048          16040 
   3989000   3131.1314      102564.84      7150.8362      107165.95      98459.244      102069.32      738.05719      1613.1164      1153.507       6491.4724      11912.347      18403.819      192328.25      45.476997      45.476997      92.994985          16040 
   3990000   3121.125       103478.65      7157.9707      104020.66      101051.14      105364.14      1893.2406      250.43352     -1146.6469      6470.7271      11938.992      18409.719      192226.13      45.468946      45.468946      92.978521          16040 
   3991000   3130.9095      105151.75      7165.1085      106367.17      103269         105819.07     -876.1436      -774.44898      1886.793       6491.0125      11937.332      18428.344      191925.06      45.445196      45.445196      92.929954          16040 
   3992000   3111.4532      96960.841      7172.2464      97770.234      94437.08       98675.209      1041.4603      1341.1304      808.68476      6450.6755      11896.422      18347.098      193221.97      45.54733       45.54733       93.138806          16040 
   3993000   3127.3229      97284.221      7179.3811      98844.847      95495.978      97511.84       170.44988     -2446.1712     -172.50958      6483.5766      11883.17       18366.747      192901.7       45.52215       45.52215       93.087317          16040 
   3994000   3124.3711      98919.402      7186.5208      98647.4        96060.453      102050.35     -557.23381      2743.9735     -1427.6968      6477.457       11897.012      18374.469      192774.5       45.512143      45.512143      93.066853          16040 
   3995000   3132.3829      101979.38      7193.6596      103059         102637.57      100241.58     -1013.0493     -1202.7317      1531.9006      6494.067       11900.382      18394.449      192450.17      45.486604      45.486604      93.01463           16040 
   3996000   3111.1748      98489.922      7200.7993      97226.969      98012.27       100230.53      1578.7031      983.1278      -342.88262      6450.0983      11919.103      18369.201      192843.13      45.517542      45.517542      93.077895          16040 
   3997000   3122.8576      97962.916      7207.9332      96785.602      100254.12      96849.027     -1963.7286      1197.1143     -2079.2204      6474.3192      11908.027      18382.347      192616.99      45.499744      45.499744      93.041499          16040 
   3998000   3121.6974      97496.858      7215.0627      96771.055      97908.745      97810.773     -215.05667     -1086.1978      1822.7385      6471.9139      11891.381      18363.295      192922.07      45.523752      45.523752      93.090593          16040 
   3999000   3138.2828      99543.334      7222.2016      98353.864      97227.727      103048.41     -753.17334     -271.59525      65.247095      6506.2989      11855.251      18361.55       192941.12      45.525251      45.525251      93.093658          16040 
   4000000   3112.3642      98675.694      7229.3362      99646.946      95811.974      100568.16      1991.5653      4.8809549     -1106.708       6452.5642      11911.493      18364.058      192885.98      45.520913      45.520913      93.084788          16040 
Loop time of 7229.34 on 8 procs for 1000000 steps with 16040 atoms

Performance: 5.976 ns/day, 4.016 hours/ns, 138.325 timesteps/s
60.4% CPU use with 1 MPI tasks x 8 OpenMP threads

MPI task timing breakdown:
Section |  min time  |  avg time  |  max time  |%varavg| %total
---------------------------------------------------------------
Pair    | 6955.2     | 6955.2     | 6955.2     |   0.0 | 96.21
Neigh   | 10.298     | 10.298     | 10.298     |   0.0 |  0.14
Comm    | 38.011     | 38.011     | 38.011     |   0.0 |  0.53
Output  | 1.2312     | 1.2312     | 1.2312     |   0.0 |  0.02
Modify  | 199.67     | 199.67     | 199.67     |   0.0 |  2.76
Other   |            | 24.97      |            |       |  0.35

Nlocal:          16040 ave       16040 max       16040 min
Histogram: 1 0 0 0 0 0 0 0 0 0
Nghost:          13795 ave       13795 max       13795 min
Histogram: 1 0 0 0 0 0 0 0 0 0
Neighs:              0 ave           0 max           0 min
Histogram: 1 0 0 0 0 0 0 0 0 0
FullNghs:  1.28126e+06 ave 1.28126e+06 max 1.28126e+06 min
Histogram: 1 0 0 0 0 0 0 0 0 0

Total # of neighbors = 1281256
Ave neighs/atom = 79.878803
Neighbor list builds = 31151
Dangerous builds = 0
Total wall time: 7:30:05
