
atom_style atomic
units metal
boundary p p p
#atom_modify sort 0 0.0
newton on

read_data data.lammps
Reading data file ...
  orthogonal box = (0 0 0) to (43.790145 43.790145 87.58029)
  1 by 1 by 1 MPI processor grid
  reading atoms ...
  16040 atoms
  read_data CPU = 0.033 seconds
# replicate 10 10 20

### interactions

pair_style flare
pair_coeff * * lmp.flare
Reading potential file lmp.flare with DATE: Thu

# compute unc all flare/std/atom L_inv_lmp.flare sparse_desc_lmp.flare
# compute MaxUnc all reduce max c_unc

mass 1 12.011000
mass 2 28.085000

thermo_style custom step temp press cpu pxx pyy pzz pxy pxz pyz ke pe etotal vol lx ly lz atoms    #c_MaxUnc
thermo 1000
timestep 0.0005
restart 100000 restart_*.dat

#################### Equilibrate at P and T_es ##############################
velocity all create $T 41928459 rot yes dist gaussian
velocity all create 2800 41928459 rot yes dist gaussian
fix mom all momentum 1000 linear 1 1 1 angular

fix 1 all npt temp $T $T $(100.0*dt) iso $P $P $(1000.0*dt)
fix 1 all npt temp 2800 $T $(100.0*dt) iso $P $P $(1000.0*dt)
fix 1 all npt temp 2800 2800 $(100.0*dt) iso $P $P $(1000.0*dt)
fix 1 all npt temp 2800 2800 0.050000000000000002776 iso $P $P $(1000.0*dt)
fix 1 all npt temp 2800 2800 0.050000000000000002776 iso 100000 $P $(1000.0*dt)
fix 1 all npt temp 2800 2800 0.050000000000000002776 iso 100000 100000 $(1000.0*dt)
fix 1 all npt temp 2800 2800 0.050000000000000002776 iso 100000 100000 0.5
dump 1 all custom 1000 1equil.bin id type x y z vx vy vz
run   10000 # report performance
Neighbor list info ...
  update every 1 steps, delay 10 steps, check yes
  max neighbors/atom: 2000, page size: 100000
  master list distance cutoff = 6
  ghost atom cutoff = 6
  binsize = 6, bins = 8 8 15
  1 neighbor lists, perpetual/occasional/extra = 1 0 0
  (1) pair flare/kk, perpetual
      attributes: full, newton on, kokkos_device
      pair build: full/bin/kk/device
      stencil: full/bin/3d
      bin: kk/device
Per MPI rank memory allocation (min/avg/max) = 16.04 | 16.04 | 16.04 Mbytes
   Step          Temp          Press           CPU            Pxx            Pyy            Pzz            Pxy            Pxz            Pyz           KinEng         PotEng         TotEng         Volume           Lx             Ly             Lz          Atoms   
         0   2800           71353.551      0              72052.679      70864.57       71143.404      1213.1426     -256.8206      -717.39017      5804.9697     -2985.8921      2819.0777      167941.93      43.790145      43.790145      87.58029           16040 
      1000   2814.0557      97239.563      6.7903933      97611.398      96897.804      97209.488     -2061.774      -208.79307      473.35967      5834.1101      2928.0178      8762.1278      169731.69      43.945153      43.945153      87.890305          16040 
      2000   2812.0667      100490.77      13.523818      99117.429      101515.59      100839.29      134.81843      988.72182      171.91095      5829.9864      2802.5095      8632.496       169398.04      43.916339      43.916339      87.832678          16040 
      3000   2771.475       99341.981      20.252186      99798.748      98485.706      99741.488     -925.53456      420.80527     -1655.5935      5745.8315      2802.3088      8548.1403      169395.24      43.916097      43.916097      87.832194          16040 
      4000   2825.3573      99996.066      26.985664      99349.311      100592.71      100046.18      826.4974      -41.200985     -658.29677      5857.5405      2817.723       8675.2636      169455.79      43.921329      43.921329      87.842657          16040 
      5000   2761.294       101915.38      33.716608      102286.17      101712.74      101747.22     -1482.9459     -402.28705      654.89842      5724.7244      2746.1686      8470.893       169184.15      43.897848      43.897848      87.795696          16040 
      6000   2828.2574      100695.02      40.4491        101310.11      99908.137      100866.8       1407.7763      1242.0329      183.40926      5863.553       2817.8275      8681.3805      169414.97      43.917802      43.917802      87.835604          16040 
      7000   2798.0219      102636.01      47.180326      103492.99      101392.45      103022.59      1037.8278     -749.87333      878.95804      5800.8687      2691.7554      8492.6242      169072.69      43.888206      43.888206      87.776411          16040 
      8000   2797.7094      101203.15      53.912363      101702.36      100449.36      101457.73      632.22718     -1038.2427      1092.7913      5800.2208      2834.7454      8634.9662      169365.28      43.913508      43.913508      87.827016          16040 
      9000   2772.6464      97853.798      60.64425       99491.894      95621.037      98448.463     -961.60457      56.108614     -439.62707      5748.2602      2783.4574      8531.7176      169549.09      43.929389      43.929389      87.858777          16040 
     10000   2781.6818      96732.906      67.377449      97190.574      96309.608      96698.534     -1034.6661     -39.896996      998.39131      5766.9924      2744.7976      8511.7901      169619.15      43.935438      43.935438      87.870876          16040 
Loop time of 67.3775 on 8 procs for 10000 steps with 16040 atoms

Performance: 6.412 ns/day, 3.743 hours/ns, 148.418 timesteps/s
59.2% CPU use with 1 MPI tasks x 8 OpenMP threads

MPI task timing breakdown:
Section |  min time  |  avg time  |  max time  |%varavg| %total
---------------------------------------------------------------
Pair    | 64.39      | 64.39      | 64.39      |   0.0 | 95.57
Neigh   | 0.080537   | 0.080537   | 0.080537   |   0.0 |  0.12
Comm    | 0.34141    | 0.34141    | 0.34141    |   0.0 |  0.51
Output  | 0.014191   | 0.014191   | 0.014191   |   0.0 |  0.02
Modify  | 2.2863     | 2.2863     | 2.2863     |   0.0 |  3.39
Other   |            | 0.265      |            |       |  0.39

Nlocal:          16040 ave       16040 max       16040 min
Histogram: 1 0 0 0 0 0 0 0 0 0
Nghost:          13677 ave       13677 max       13677 min
Histogram: 1 0 0 0 0 0 0 0 0 0
Neighs:              0 ave           0 max           0 min
Histogram: 1 0 0 0 0 0 0 0 0 0
FullNghs:  1.38998e+06 ave 1.38998e+06 max 1.38998e+06 min
Histogram: 1 0 0 0 0 0 0 0 0 0

Total # of neighbors = 1389982
Ave neighs/atom = 86.657232
Neighbor list builds = 260
Dangerous builds = 0
run  990000
Per MPI rank memory allocation (min/avg/max) = 16.11 | 16.11 | 16.11 Mbytes
   Step          Temp          Press           CPU            Pxx            Pyy            Pzz            Pxy            Pxz            Pyz           KinEng         PotEng         TotEng         Volume           Lx             Ly             Lz          Atoms   
     10000   2781.6818      96732.906      0              97190.574      96309.608      96698.534     -1034.6661     -39.896996      998.39131      5766.9924      2744.7976      8511.7901      169619.15      43.935438      43.935438      87.870876          16040 
     11000   2813.4638      97308.756      6.7313511      97386.966      96807.083      97732.217     -357.7722      -2126.1486     -848.23701      5832.8829      2741.5591      8574.4421      169606.33      43.934331      43.934331      87.868662          16040 
     12000   2810.8979      101108.57      13.463621      101857.8       100297.2       101170.72      850.60781      747.74388      147.53361      5827.5633      2697.5021      8525.0655      169283.54      43.906442      43.906442      87.812885          16040 
     13000   2822.8155      100809         20.195668      100239.52      101280.33      100907.17     -1194.0048      597.6147      -8.8239767      5852.2708      2763.6222      8615.893       169321.22      43.909699      43.909699      87.819399          16040 
     14000   2788.1437      101574.89      26.927375      102719.57      101282.33      100722.76      237.52093      1543.1222     -1561.1637      5780.3893      2763.4031      8543.7923      169215.51      43.900559      43.900559      87.801119          16040 
     15000   2788.4157      96865.645      33.662486      95978.678      97205.551      97412.707     -365.26318     -529.57918      1569.3176      5780.953       2733.6133      8514.5663      169559.35      43.930275      43.930275      87.860549          16040 
     16000   2785.6092      95610.463      40.393498      95559.575      96552.488      94719.325      881.98159      828.4568       1260.5956      5775.1346      2736.8078      8511.9424      169648.95      43.938011      43.938011      87.876022          16040 
     17000   2757.4152      97063.569      47.126432      98091.477      97045.653      96053.575      707.89626     -857.94533     -740.30026      5716.6828      2713.1458      8429.8285      169598.76      43.933678      43.933678      87.867355          16040 
     18000   2809.8022      99067.863      53.859061      98701.374      98539.962      99962.254     -1433.908       2793.8074      1140.576       5825.2917      2703.9225      8529.2142      169391.32      43.915758      43.915758      87.831516          16040 
     19000   2814.4292      102032.9       60.590891      101260.51      103214.25      101623.92      246.61766      594.2878      -759.61436      5834.8844      2843.9912      8678.8756      169283.36      43.906426      43.906426      87.812852          16040 
     20000   2793.5847      103352.01      67.323598      103330.89      103273         103452.13     -1199.9694     -82.047986     -1105.732       5791.6695      2740.7086      8532.3781      169083.41      43.889133      43.889133      87.778265          16040 
     21000   2807.9958      102329.97      74.056202      101553.59      102839.45      102596.88     -1629.233      -335.28165      291.63765      5821.5466      2803.639       8625.1856      169235.18      43.902261      43.902261      87.804522          16040 
     22000   2801.0823      100837.77      80.786685      100603.69      101912.02      99997.58       631.19916      830.86158      641.20351      5807.2136      2675.854       8483.0675      169243.38      43.902969      43.902969      87.805939          16040 
     23000   2806.3777      98151.444      87.518562      97575.172      98211.757      98667.402     -370.97051     -432.13674      877.54487      5818.192       2676.1334      8494.3255      169464.75      43.922103      43.922103      87.844207          16040 
     24000   2808.3694      96726.337      94.251397      96135.514      96931.56       97111.939      1038.1149      1550.5363     -1763.0852      5822.3212      2660.2705      8482.5917      169583.78      43.932384      43.932384      87.864767          16040 
     25000   2818.4859      99030.992      100.9831       99011.309      98631.366      99450.299      1014.4006      851.15587      745.38979      5843.2948      2638.2696      8481.5644      169300.49      43.907907      43.907907      87.815815          16040 
     26000   2824.6233      99966.48       107.71568      100800.26      99327.19       99771.99       1220.114       1296.3622     -882.38075      5856.0189      2739.0489      8595.0678      169319.29      43.909532      43.909532      87.819065          16040 
     27000   2809.8555      99018.63       114.45053      98406.006      98934.849      99715.036     -1903.9553      353.3742       1605.3854      5825.4021      2697.7434      8523.1455      169302.8       43.908107      43.908107      87.816214          16040 
     28000   2779.9641      102376.94      121.18184      102836.04      101298.3       102996.48     -60.118601     -121.60379      879.52811      5763.4312      2732.1174      8495.5486      169084.93      43.889264      43.889264      87.778529          16040 
     29000   2779.5011      101256.92      127.914        100768.15      102215.48      100787.13      1578.7319      715.11801      1957.0008      5762.4713      2715.3652      8477.8366      169138.43      43.893893      43.893893      87.787785          16040 
     30000   2794.8563      98046.251      134.64572      98444.601      96857.433      98836.718      52.625256      31.58213       1297.5242      5794.3058      2621.5499      8415.8557      169351.36      43.912304      43.912304      87.824609          16040 
     31000   2779.4291      95122.395      141.37724      94791.224      93854.1        96721.861      713.05978     -1599.7241     -36.491567      5762.3221      2613.5214      8375.8435      169551.78      43.929621      43.929621      87.859242          16040 
     32000   2799.1935      99838.988      148.10971      98895.937      100599.8       100021.22     -207.76334      1347.5659     -892.54701      5803.2977      2748.0123      8551.3101      169350.27      43.912211      43.912211      87.824421          16040 
     33000   2784.1695      102215.42      154.84258      102765.45      102125.07      101755.74      1370.8298     -293.34683      814.16838      5772.15        2680.361       8452.511       169049.77      43.886222      43.886222      87.772445          16040 
     34000   2829.4004      101232.89      161.57412      101888.6       101618.63      100191.45     -133.67504      1069.4835      1124.2584      5865.9227      2747.4505      8613.3732      169183.48      43.89779       43.89779       87.795579          16040 
     35000   2808.6873      102263.48      168.30619      102014.77      101973.65      102802.04      750.67462      168.91947     -183.45222      5822.9802      2685.3497      8508.3298      169005.83      43.882419      43.882419      87.764838          16040 
     36000   2778.1458      99076.235      175.03857      99655.79       99450.207      98122.709     -351.92676     -53.963523     -26.23539       5759.6614      2594.6894      8354.3508      169190.69      43.898413      43.898413      87.796827          16040 
     37000   2811.8111      94049.079      181.77023      94328.635      93586.393      94232.208     -410.46717     -1309.5833     -750.33027      5829.4565      2673.295       8502.7515      169591.68      43.933066      43.933066      87.866133          16040 
     38000   2800.0215      98689.109      188.50305      99074.07       97966.951      99026.305      1381.5798      1432.3759      253.57126      5805.0143      2588.7062      8393.7205      169257.26      43.90417       43.90417       87.808339          16040 
     39000   2808.1848      98308.427      195.23694      97804.41       98987.104      98133.767     -1415.9663     -48.405331     -2265.3407      5821.9384      2669.8466      8491.785       169291.84      43.907159      43.907159      87.814319          16040 
     40000   2817.278       101526.51      201.96827      101893.81      100563.24      102122.46     -1056.9333      427.87989      236.86958      5840.7904      2611.0137      8451.8041      169058.82      43.887005      43.887005      87.774011          16040 
     41000   2794.5932      101440.55      208.70262      101428.66      101857.89      101035.1      -1983.6146     -162.34039     -267.01568      5793.7604      2696.1831      8489.9434      169066.02      43.887629      43.887629      87.775257          16040 
     42000   2797.4262      102309.07      215.43579      102778.93      101201.29      102947        -119.75084      688.03626      340.58263      5799.6336      2618.4137      8418.0473      168911.26      43.874232      43.874232      87.748465          16040 
     43000   2809.068       102836.05      222.16871      103008.41      103020.6       102479.15      426.22196      617.20611      1084.7751      5823.7695      2716.4367      8540.2063      168994.41      43.881431      43.881431      87.762861          16040 
     44000   2822.5948      99025.8        228.90032      97980.165      99234.29       99862.946     -1661.5856     -167.42082      80.118051      5851.8133      2700.5603      8552.3737      169295.05      43.907437      43.907437      87.814874          16040 
     45000   2793.7619      98319.483      235.6346       97674.721      99263.354      98020.373     -1031.4803     -1169.5003     -1189.0123      5792.0369      2596.5809      8388.6178      169208.19      43.899927      43.899927      87.799854          16040 
     46000   2794.9501      101680.78      242.36743      100901.26      102274.02      101867.07     -353.10467     -987.78816     -425.39698      5794.5002      2643.0425      8437.5427      169040.9       43.885455      43.885455      87.77091           16040 
     47000   2794.7596      102223.37      249.09959      102661.66      102193.78      101814.67     -1219.4703      1916.5211      1174.0461      5794.1052      2667.7352      8461.8404      169016.44      43.883338      43.883338      87.766676          16040 
     48000   2736.4341      100067.15      255.83559      99639.179      100334.42      100227.85     -862.22668     -584.33635      1059.8016      5673.1847      2639.2996      8312.4843      169042.33      43.885578      43.885578      87.771156          16040 
     49000   2811.1388      96514.03       262.56691      96306.426      96244.459      96991.204      2172.2033     -1236.9027      148.24576      5828.0626      2636.4029      8464.4655      169556.99      43.930071      43.930071      87.860141          16040 
     50000   2794.2915      96980.995      269.30117      96369.972      97129.806      97443.208      1486.3019      1945.0639     -556.35047      5793.1349      2582.8304      8375.9653      169372.05      43.914093      43.914093      87.828186          16040 
     51000   2807.2046      98804.244      276.03514      98861.764      97822.145      99728.821     -795.25178      1201.4175     -2767.586       5819.9064      2656.1236      8476.03        169304.79      43.908279      43.908279      87.816558          16040 
     52000   2777.1611      100741.92      282.76765      99881.462      101215.84      101128.46      1274.7672      854.73922      1255.2657      5757.62        2608.83        8366.45        168998.75      43.881806      43.881806      87.763613          16040 
     53000   2828.6047      99687.49       289.50229      99752.859      99522.949      99786.661      1327.4702      205.82947     -110.19678      5864.2731      2629.8217      8494.0948      169173.55      43.896931      43.896931      87.793861          16040 
     54000   2790.1971      102120.7       296.23626      101653.45      102981.97      101726.67      738.19067     -720.2884       1374.518       5784.6463      2596.2926      8380.9388      169000.38      43.881948      43.881948      87.763896          16040 
     55000   2786.6535      100116.92      302.9678       99484.514      100687         100179.25     -542.94832      230.38866      694.11545      5777.2998      2696.7825      8474.0823      169173.47      43.896924      43.896924      87.793847          16040 
     56000   2802.5629      98862.986      309.7012       99479.057      98158.261      98951.641     -1633.4987     -955.66047      1033.0207      5810.2831      2564.6511      8374.9342      169127.37      43.892936      43.892936      87.785872          16040 
     57000   2821.7915      95343.248      316.4355       95215.194      94849.03       95965.519      496.39802      270.1438      -844.29949      5850.1479      2640.7101      8490.858       169575.94      43.931707      43.931707      87.863414          16040 
     58000   2808.5118      97995.67       323.16935      98489.486      97433.505      98064.018      214.65838      365.89756     -476.21255      5822.6163      2615.0246      8437.6409      169320.95      43.909676      43.909676      87.819352          16040 
     59000   2798.6043      101456.57      329.90181      101361.39      101861.37      101146.94      308.3403       1026.7792     -2669.9062      5802.0762      2565.1699      8367.246       169017.95      43.883468      43.883468      87.766936          16040 
     60000   2822.7926      101407.7       336.63435      100838.28      100787.84      102596.98     -460.22571     -514.20026     -265.4348       5852.2234      2621.8445      8474.0679      169074.32      43.888346      43.888346      87.776692          16040 
     61000   2794.8724      101814.29      343.36646      102378.03      101188.48      101876.35     -1839.2919     -814.75579     -820.1063       5794.3392      2643.9611      8438.3002      169025.78      43.884146      43.884146      87.768292          16040 
     62000   2807.8734      98680.773      350.09959      99762.052      98096.972      98183.295     -1610.8587      987.61878     -253.43529      5821.2928      2674.6686      8495.9614      169260.58      43.904457      43.904457      87.808915          16040 
     63000   2804.2576      100196.39      356.83508      101332.36      98812.844      100443.97      660.66986     -1327.064       1122.0429      5813.7965      2578.1034      8391.8999      169084.95      43.889266      43.889266      87.778532          16040 
     64000   2787.1439      101417.13      363.56679      101328.73      101488.3       101434.35      1410.5519     -818.78215     -121.07605      5778.3164      2651.0815      8429.3979      169003.93      43.882255      43.882255      87.764511          16040 
     65000   2823.0604      101002.06      370.3002       102205.96      100421.24      100378.98     -754.16266      1299.8484     -817.31875      5852.7787      2635.1002      8487.8788      169098.66      43.890452      43.890452      87.780904          16040 
     66000   2786.851       97317.211      377.03413      96624.975      97411.814      97914.844      1153.6179     -1831.5887      88.959965      5777.7091      2615.8362      8393.5453      169362.68      43.913283      43.913283      87.826566          16040 
     67000   2804.4501      95865.523      383.76718      96046.468      95774.703      95775.399     -524.75223      2753.8423     -1082.6494      5814.1957      2618.3925      8432.5882      169451.06      43.920921      43.920921      87.841841          16040 
     68000   2793.8694      98184.479      390.50105      97131.177      99593.445      97828.814     -692.19862     -1732.0684      1961.838       5792.2598      2620.4725      8412.7323      169282.04      43.906312      43.906312      87.812624          16040 
     69000   2796.7716      99557.032      397.23573      98986.84       101068.92      98615.34       1117.4812      748.35913     -359.73773      5798.2767      2661.5502      8459.8268      169298.48      43.907733      43.907733      87.815467          16040 
     70000   2756.7511      100512.77      403.96906      100503.31      99560.524      101474.47     -525.2865      -551.15138     -998.81821      5715.3058      2602.4928      8317.7987      169104.1       43.890923      43.890923      87.781846          16040 
     71000   2803.1881      102854.17      410.70422      101622.42      103630.04      103310.05     -2309.4602      647.11109     -1241.7869      5811.5792      2643.9813      8455.5605      168991.82      43.881207      43.881207      87.762413          16040 
     72000   2821.2686      103481.38      417.43891      103318.06      104188.18      102937.9       1323.3912      366.27359      297.56551      5849.0639      2606.6047      8455.6686      168808.12      43.865301      43.865301      87.730602          16040 
     73000   2799.7644      101185.48      424.17562      101865.39      100451.6       101239.45      1975.6304      405.70563      785.62553      5804.4812      2626.0285      8430.5097      169043.87      43.885712      43.885712      87.771424          16040 
     74000   2773.7721      100291.38      430.91078      99489.682      99607.151      101777.3       177.73199      788.35578     -507.85271      5750.594       2705.7896      8456.3836      169129.28      43.893102      43.893102      87.786203          16040 
     75000   2787.7387      100881.01      437.64711      100683.76      100970.34      100988.93     -504.00336      1632.2587     -2793.1393      5779.5496      2573.8052      8353.3548      169046.26      43.885918      43.885918      87.771836          16040 
     76000   2802.5242      98579.657      444.38512      98245.836      98992.779      98500.357      1057.9969     -186.58464      237.244        5810.203       2616.9565      8427.1595      169294.64      43.907402      43.907402      87.814804          16040 
     77000   2791.7115      96673.107      451.12479      96520.384      98077.829      95421.11      -377.82677     -806.32995     -697.08388      5787.7861      2633.4431      8421.2291      169421.76      43.918388      43.918388      87.836777          16040 
     78000   2807.2246      96945.573      457.86519      96657.475      97030          97149.245     -592.63627     -39.691071     -1486.1875      5819.9478      2581.4579      8401.4057      169286.32      43.906682      43.906682      87.813365          16040 
     79000   2813.8418      97769.258      464.60332      98126.206      97338.011      97843.559      38.078546      617.03712     -1212.2089      5833.6666      2659.487       8493.1535      169317.3       43.90936       43.90936       87.818721          16040 
     80000   2808.5354      101170.69      471.34355      101396.31      100462.12      101653.63      820.83851      109.66672      1335.7466      5822.6653      2590.5567      8413.222       169068.27      43.887823      43.887823      87.775647          16040 
     81000   2791.1785      100704.15      478.08436      101117.75      100252.43      100742.27     -28.20453      -1084.8385      555.72937      5786.681       2703.9354      8490.6164      169195.06      43.898791      43.898791      87.797582          16040 
     82000   2793.2808      100603.9       484.82563      101621.24      99707.95       100482.5      -89.475357      5.3279408      175.90017      5791.0394      2586.4136      8377.453       169061.35      43.887224      43.887224      87.774448          16040 
     83000   2810.1933      98808.469      491.56615      97991.061      99794.867      98639.48       968.43738      702.01769      400.29974      5826.1024      2596.3209      8422.4233      169171.33      43.896739      43.896739      87.793477          16040 
     84000   2790.392       97385.503      498.30657      97832.705      96583.627      97740.178     -996.47467     -665.17468      372.88581      5785.0504      2606.8756      8391.926       169275.73      43.905767      43.905767      87.811534          16040 
     85000   2796.5512      97396.862      505.04882      97590.357      96895.362      97704.869      626.69547     -843.40839      1189.0505      5797.8197      2604.7307      8402.5504      169381.37      43.914899      43.914899      87.829797          16040 
     86000   2814.4481      94739.299      511.7923       93895.955      95576.786      94745.157      1259.2373     -1805.3757     -551.86274      5834.9235      2623.4804      8458.4039      169586.51      43.932619      43.932619      87.865239          16040 
     87000   2805.719       98226.421      518.53748      98007.849      98619.707      98051.706      583.00764      279.63505     -1401.4557      5816.8263      2592.6286      8409.4549      169228.68      43.901699      43.901699      87.803397          16040 
     88000   2802.5099      99953.423      525.27772      98891.957      100793.61      100174.7       3363.7329     -1806.5092     -642.24932      5810.1733      2606.2504      8416.4237      169111.44      43.891558      43.891558      87.783116          16040 
     89000   2781.1056      100114.87      532.01815      100326.06      100041.29      99977.271     -1984.8382      1487.2396      234.43346      5765.7978      2627.5212      8393.3189      169090.68      43.889762      43.889762      87.779524          16040 
     90000   2828.4182      102113.1       538.75905      103330.93      101945.46      101062.9       1437.5429     -549.81151      485.12875      5863.8863      2593.9031      8457.7894      169029.43      43.884462      43.884462      87.768924          16040 
     91000   2820.6436      102950.92      545.49899      103305.3       103381.21      102166.24      812.48898     -1063.9328      791.48023      5847.7681      2616.6185      8464.3866      168974.54      43.879711      43.879711      87.759421          16040 
     92000   2801.1681      101813.1       552.23874      103210.51      100564.34      101664.47     -1131.0708      2541.1936      507.47322      5807.3914      2583.0105      8390.4019      168992.93      43.881303      43.881303      87.762605          16040 
     93000   2816.8601      96550.699      558.98103      96434.986      96574.178      96642.933     -242.91356      501.10316     -2095.1958      5839.9241      2632.6136      8472.5377      169417.47      43.918018      43.918018      87.836036          16040 
     94000   2791.7415      98807.314      565.72237      99831.488      97299.781      99290.673     -33.863234      973.3878      -1720.3939      5787.8482      2660.5777      8448.4259      169254.27      43.903911      43.903911      87.807822          16040 
     95000   2802.9478      99053.229      572.46506      98327.628      99006.711      99825.348      3089.7819     -215.35782      140.92168      5811.0811      2597.2552      8408.3363      169230.39      43.901847      43.901847      87.803693          16040 
     96000   2821.5705      99242.986      579.20562      97721.492      101291.02      98716.445      367.49272      1519.8012     -915.71378      5849.6897      2651.251       8500.9407      169311.32      43.908843      43.908843      87.817687          16040 
     97000   2785.8153      99543.826      585.94718      99192.283      99186.413      100252.78     -471.90552      901.10307     -877.76023      5775.562       2578.5355      8354.0975      169156.88      43.895489      43.895489      87.790977          16040 
     98000   2850.1244      102436.04      592.68954      102929.93      101844.21      102533.99      1090.2452      849.8673      -953.6698       5908.8877      2632.5256      8541.4133      168999.74      43.881893      43.881893      87.763785          16040 
     99000   2792.1001      103857.28      599.43497      103991.97      104526.03      103053.85     -273.11687      973.73595      1307.4862      5788.5917      2605.7667      8394.3584      168838.66      43.867946      43.867946      87.735892          16040 
    100000   2840.073       101105.8       606.18596      101023.36      100491.99      101802.05      540.62351      157.61868     -377.97877      5888.0492      2680.715       8568.7641      169118.3       43.892152      43.892152      87.784303          16040 
    101000   2781.0551      100181.72      612.92553      100610.23      99564.294      100370.64     -1470.9756     -2149.5818      926.83764      5765.6931      2620.0707      8385.7638      169078.4       43.888699      43.888699      87.777399          16040 
    102000   2791.5218      94923.991      619.67116      95696.218      93457.893      95617.863     -1032.9869      1455.4769      1238.1637      5787.3927      2578.7012      8366.0939      169457.56      43.921482      43.921482      87.842964          16040 
    103000   2789.3005      95800.127      626.41529      96383.156      95522.484      95494.741     -238.95391     -338.71132     -321.20679      5782.7875      2617.6536      8400.441       169428.47      43.918969      43.918969      87.837937          16040 
    104000   2810.9572      100767.83      633.15408      100320.56      101354.46      100628.46      773.95742     -305.72092      162.71572      5827.6863      2610.987       8438.6733      169144.98      43.89446       43.89446       87.788919          16040 
    105000   2813.8321      100256.86      639.89285      99358.783      100836.7       100575.11      317.96675      1483.4205      583.76011      5833.6464      2646.4124      8480.0588      169108.26      43.891283      43.891283      87.782566          16040 
    106000   2834.3298      101777.52      646.63258      102003.09      101068.29      102261.17     -2359.1078      715.6859      -1055.2044      5876.1424      2596.8303      8472.9727      169091.42      43.889826      43.889826      87.779653          16040 
    107000   2792.848       101528.15      653.37266      101905.27      102022.88      100656.3      -802.67813     -3080.7386     -1261.2651      5790.1422      2568.9397      8359.0818      168948.95      43.877496      43.877496      87.754992          16040 
    108000   2791.9259      99785.539      660.11453      99626.227      100175.43      99554.955     -1168.9627     -871.6957      -2086.4189      5788.2305      2573.645       8361.8755      169116.4       43.891987      43.891987      87.783974          16040 
    109000   2819.0986      97619.874      666.85571      97832.569      96963.839      98063.214     -1150.1232      2074.2509      2908.6727      5844.565       2606.6945      8451.2595      169295.46      43.907472      43.907472      87.814945          16040 
    110000   2830.6598      96579.004      673.59686      97728.291      95943.92       96064.8        1664.0841     -56.308845     -1751.5896      5868.5336      2641.74        8510.2737      169436.46      43.919659      43.919659      87.839318          16040 
    111000   2788.4119      98191.303      680.34058      97446.803      98170.706      98956.4        1201.1432     -666.903        1315.364       5780.9452      2604.7563      8385.7014      169237.58      43.902468      43.902468      87.804936          16040 
    112000   2789.2114      101717.96      687.08192      101389.06      101943.6       101821.22     -550.50117      168.25936      1297.3869      5782.6027      2676.097       8458.6997      169008.46      43.882647      43.882647      87.765294          16040 
    113000   2798.3079      101220.22      693.823        101341.84      101597.99      100720.85      1739.2345     -287.93271      1203.3171      5801.4617      2669.0545      8470.5162      169030.51      43.884555      43.884555      87.76911           16040 
    114000   2793.2559      102150.99      700.56394      101513.2       102568.23      102371.54      1168.8981     -1417.6422     -2190.353       5790.9877      2578.2722      8369.26        168911.66      43.874267      43.874267      87.748534          16040 
    115000   2814.5589      100462.46      707.30832      100991.96      100924.04      99471.382     -330.48564      1547.2694     -417.68287      5835.1533      2665.0316      8500.1849      169126.57      43.892867      43.892867      87.785735          16040 
    116000   2800.5741      97650.023      714.05035      97742.542      97547.752      97659.775      1832.6481     -1056.1336     -388.05485      5806.16        2580.0595      8386.2195      169280.5       43.906179      43.906179      87.812358          16040 
    117000   2784.9535      98589.617      720.79591      98391.872      98230.944      99146.036      1777.5324      3280.5118     -3057.074       5773.7753      2614.2946      8388.0699      169217.61      43.900741      43.900741      87.801482          16040 
    118000   2803.2616      99000.697      727.54021      99800.198      99469.811      97732.082     -977.47735      690.41116      1058.568       5811.7316      2729.9907      8541.7223      169315.88      43.909237      43.909237      87.818475          16040 
    119000   2798.1326      103913.47      734.28355      103277.61      104455.19      104007.63     -820.65759      911.37413     -1708.8497      5801.0981      2646.4307      8447.5288      168829.55      43.867157      43.867157      87.734315          16040 
    120000   2808.7231      106637.01      741.02632      106408.69      107553.84      105948.5       863.16938      697.23651     -397.66071      5823.0545      2642.6629      8465.7174      168753.26      43.860549      43.860549      87.721098          16040 
    121000   2779.9327      101533.89      747.76693      101325.02      100871.97      102404.68     -548.41567      1908.4397      600.12684      5763.3661      2557.3465      8320.7126      168978.76      43.880077      43.880077      87.760153          16040 
    122000   2826.8174      96900.888      754.50886      98084.411      96557.96       96060.293      214.24335     -1219.3615     -259.27769      5860.5676      2562.1943      8422.7619      169329.2       43.910389      43.910389      87.820779          16040 
    123000   2757.0947      97747.687      761.25128      98181.099      97482.542      97579.419     -741.50072     -3398.184      -1872.9469      5716.0184      2588.2633      8304.2817      169311.54      43.908863      43.908863      87.817725          16040 
    124000   2803.4989      97822.601      767.99337      98406.767      97875.281      97185.755     -1343.6841     -688.47197     -134.39647      5812.2237      2645.8347      8458.0584      169384.92      43.915205      43.915205      87.830411          16040 
    125000   2782.6403      100655.71      774.73728      100512.39      100554.61      100900.12     -761.16613     -61.21004       1875.3078      5768.9794      2609.1631      8378.1426      169134.74      43.893574      43.893574      87.787147          16040 
    126000   2806.1005      100068.31      781.47776      99227.36       99984.291      100993.28      2117.3901      53.501926     -153.43203      5817.6173      2690.6275      8508.2448      169295.19      43.907449      43.907449      87.814899          16040 
    127000   2782.1344      102344.69      788.21819      102878.97      101075.8       103079.31     -461.85068     -2031.6928      2588.8028      5767.9306      2627.9263      8395.8568      168999.5       43.881871      43.881871      87.763742          16040 
    128000   2798.4579      99449.118      794.95975      99308.976      98353.584      100684.79     -471.33175     -772.62741      1233.6498      5801.7726      2666.4478      8468.2205      169199.43      43.899169      43.899169      87.798338          16040 
    129000   2793.3395      97164.983      801.70464      96790.935      96792.828      97911.185      264.11556      881.96054     -869.64952      5791.1611      2552.0613      8343.2224      169391.72      43.915793      43.915793      87.831585          16040 
    130000   2819.6262      95355.41       808.44707      96633.374      94835.857      94597          818.651        999.37432     -324.51532      5845.6589      2623.1627      8468.8215      169522.17      43.927063      43.927063      87.854127          16040 
    131000   2792.7316      99619.911      815.18862      99740.276      98932.027      100187.43      356.19383     -664.5847      -578.08897      5789.9009      2570.5908      8360.4917      169092.38      43.889909      43.889909      87.779818          16040 
    132000   2813.2084      99369.814      821.92814      99695.801      98558.896      99854.745     -1782.1506     -328.24295     -476.23232      5832.3534      2625.5529      8457.9063      169178.6       43.897368      43.897368      87.794736          16040 
    133000   2793.4536      102543.2       828.66943      103668.25      102381.52      101579.84      699.00052     -1364.1483      301.29708      5791.3976      2606.2482      8397.6458      168861.61      43.869933      43.869933      87.739866          16040 
    134000   2815.4378      100516.32      835.41025      102072.3       98973.859      100502.79      1772.5826      1408.0368     -447.68047      5836.9755      2633.1503      8470.1257      169117.62      43.892093      43.892093      87.784186          16040 
    135000   2808.23        102188.85      842.15092      101946.1       102633.55      101986.91     -541.45521      1012.8757     -1216.0989      5822.0322      2579.8575      8401.8897      168982.25      43.880378      43.880378      87.760757          16040 
    136000   2823.3888      99469.704      848.8918       98429.023      99546.874      100433.21     -827.2692      -296.33778      909.34296      5853.4594      2573.2299      8426.6893      169166.68      43.896336      43.896336      87.792673          16040 
    137000   2806.2685      95608.794      855.63419      96616.745      96095.688      94113.948      102.09365     -585.28433      858.39001      5817.9655      2594.7566      8412.7221      169423.24      43.918517      43.918517      87.837033          16040 
    138000   2810.0451      95436.976      862.37326      95337.277      95084.992      95888.66       1308.5741      1741.8589      1533.8442      5825.7951      2551.0384      8376.8335      169414.01      43.917719      43.917719      87.835438          16040 
    139000   2789.9936      99718.09       869.11399      101256.93      99749.978      98147.362      988.70545      1223.5351     -505.55815      5784.2244      2600.0981      8384.3224      169102.29      43.890766      43.890766      87.781532          16040 
    140000   2842.9121      99138.964      875.85581      99721.28       98448.501      99247.109     -27.735787     -712.26373     -1521.3717      5893.9353      2611.1809      8505.1162      169180.85      43.897562      43.897562      87.795124          16040 
    141000   2784.6157      101818.42      882.59688      101156.6       102930.18      101368.48      917.26833     -525.52532     -2413.6642      5773.0749      2624.4934      8397.5683      168940.03      43.876723      43.876723      87.753447          16040 
    142000   2833.6881      100695.27      889.33848      101090.68      99396.929      101598.21     -1426.5397      2043.5515      161.82253      5874.812       2672.8558      8547.6677      169146.5       43.894591      43.894591      87.789182          16040 
    143000   2776.0725      98957.849      896.07823      99435.8        98818.587      98619.159      184.88038      221.07103      183.99842      5755.363       2605.6368      8360.9999      169164.24      43.896125      43.896125      87.79225           16040 
    144000   2790.2795      95991.781      902.81975      96052.796      94988.802      96933.745     -1087.319      -82.757115      596.82774      5784.8171      2627.0599      8411.877       169456.44      43.921385      43.921385      87.842771          16040 
    145000   2798.1811      98786.791      909.55894      98330.865      98914.999      99114.508      1219.8536      423.22368     -882.72083      5801.1988      2614.2733      8415.4721      169216.28      43.900626      43.900626      87.801252          16040 
    146000   2781.8828      100771.19      916.29844      101222.34      100337.79      100753.44      3196.4381     -1050.1213     -957.45442      5767.409       2585.4928      8352.9018      168944.1       43.877076      43.877076      87.754152          16040 
    147000   2811.4322      99040.452      923.03598      99216.022      98646.805      99258.528      115.12733     -33.062151     -768.26778      5828.6709      2622.7203      8451.3913      169228.42      43.901676      43.901676      87.803353          16040 
    148000   2818.9592      99353.089      929.77416      99693.28       99116.227      99249.762      184.1072      -536.05586     -263.84539      5844.276       2563.914       8408.19        169206.86      43.899812      43.899812      87.799623          16040 
    149000   2798.6367      99299.359      936.51253      98672.278      99783.168      99442.631     -153.72905     -1725.7699     -807.31813      5802.1432      2556.7572      8358.9004      169169.09      43.896545      43.896545      87.793089          16040 
    150000   2822.5727      100661.17      943.24952      101088.04      102118.59      98776.874      1540.8474      1323.0042      637.92746      5851.7676      2635.1985      8486.9661      169154.47      43.89528       43.89528       87.79056           16040 
    151000   2786.9902      106482.48      949.98776      106435.46      106551.9       106460.08      157.68899      712.37836      1063.3757      5777.9977      2648.4829      8426.4806      168641.03      43.850823      43.850823      87.701646          16040 
    152000   2836.6544      104202.39      956.72602      105562.29      104081.33      102963.53     -2362.5582      360.17818      789.33355      5880.9617      2599.6787      8480.6404      168823.33      43.866618      43.866618      87.733237          16040 
    153000   2817.3451      97967.216      963.46871      97757.356      98409.959      97734.333     -1521.294       1980.972      -85.132096      5840.9297      2563.4019      8404.3316      169265.81      43.904909      43.904909      87.809818          16040 
    154000   2842.212       96921.248      970.20704      96385.72       97509.507      96868.517     -1050.4923     -163.53191     -716.73516      5892.4837      2624.9683      8517.4519      169471.04      43.922647      43.922647      87.845293          16040 
    155000   2787.9474      99625.297      976.94473      100056.44      99190.15       99629.296     -309.20603      1069.2409      517.00229      5779.9822      2615.7711      8395.7533      169146.4       43.894582      43.894582      87.789165          16040 
    156000   2820.4272      98416.225      983.68472      98818.472      97592.377      98837.825     -474.53965      688.11654     -216.6337       5847.3195      2612.6674      8459.9869      169273.25      43.905553      43.905553      87.811105          16040 
    157000   2786.4477      100978.87      990.42364      101511.81      100296         101128.81      633.11148      526.82859      252.43077      5776.873       2612.6991      8389.5721      169010.01      43.882781      43.882781      87.765562          16040 
    158000   2810.2847      103512.4       997.162        103130.7       103648.52      103757.99      252.03842      1596.8867     -89.556987      5826.2921      2663.9195      8490.2116      168853.22      43.869207      43.869207      87.738415          16040 
    159000   2801.8004      103618.96      1003.9051      104057.68      104038.31      102760.87      1336.8294      1296.3218      1410.243       5808.7024      2566.8902      8375.5926      168829.08      43.867116      43.867116      87.734232          16040 
    160000   2768.2204      98780.416      1010.6447      98082.54       99557.796      98700.912     -894.08817      289.23322      384.50777      5739.0842      2613.9234      8353.0076      169179.15      43.897415      43.897415      87.794831          16040 
    161000   2796.9804      98525.136      1017.3847      97969.587      98858.949      98746.871     -904.71567     -98.373529     -1574.5237      5798.7094      2618.5836      8417.293       169298.85      43.907765      43.907765      87.815531          16040 
    162000   2806.4083      99286.832      1024.1218      99519.884      99354.326      98986.287      782.04393      415.39456     -1858.2916      5818.2554      2635.0253      8453.2807      169186.32      43.898035      43.898035      87.796071          16040 
    163000   2803.6071      99367.769      1030.8613      98838.623      99943.662      99321.022      930.66869     -1101.3882     -214.1741       5812.448       2548.7784      8361.2264      169103.86      43.890902      43.890902      87.781804          16040 
    164000   2817.4678      98612.842      1037.602       98721.894      97902.313      99214.32      -1757.3782      1023.9211     -1394.4182      5841.184       2531.5525      8372.7365      169235.44      43.902283      43.902283      87.804567          16040 
    165000   2775.9241      97929.461      1044.3394      98176.746      98417.057      97194.578     -480.61658      920.098       -547.74009      5755.0555      2618.2056      8373.2611      169299.62      43.907832      43.907832      87.815664          16040 
    166000   2803.307       102505.19      1051.0777      102367.81      102644.82      102502.94     -660.16078     -1548.3983     -406.52051      5811.8258      2597.3844      8409.2103      168925.16      43.875436      43.875436      87.750872          16040 
    167000   2799.673       102302.59      1057.8147      101819.37      102837.79      102250.61      409.48842     -496.66152      2079.7768      5804.2918      2566.6107      8370.9024      168954.55      43.87798       43.87798       87.755961          16040 
    168000   2807.8048      100196.85      1064.552       100467.88      100258.86      99863.808      476.40687      918.97826     -719.9734       5821.1506      2604.1245      8425.2751      169086.52      43.889402      43.889402      87.778805          16040 
    169000   2798.3129      101130.48      1071.2904      102029.42      100847.92      100514.11     -260.18466     -1273.9075      1177.6522      5801.472       2595.5218      8396.9938      169029.08      43.884431      43.884431      87.768863          16040 
    170000   2776.1354      98453.493      1078.034       97929.799      98774.679      98656         -1561.5037      70.855276     -257.18522      5755.4936      2598.7605      8354.2541      169119.54      43.892259      43.892259      87.784518          16040 
    171000   2824.7506      96505.066      1084.7698      95851.974      96953.8        96709.425      697.03086     -1011.3038      22.504589      5856.2828      2553.0596      8409.3424      169400.85      43.916582      43.916582      87.833164          16040 
    172000   2814.0779      99465.11       1091.5093      99750.756      99199.274      99445.301     -552.09389     -1019.3246     -1263.3998      5834.1561      2603.0043      8437.1604      169137.38      43.893802      43.893802      87.787605          16040 
    173000   2811.1509      102648.98      1098.2497      103412.1       100931.97      103602.86     -279.10009     -618.04036     -1028.6085      5828.0877      2676.1647      8504.2524      168989.92      43.881042      43.881042      87.762084          16040 
    174000   2803.3118      104728.89      1104.9869      103916.46      105317.67      104952.54      1887.904      -2558.5323     -979.95277      5811.8358      2614.7739      8426.6097      168844.82      43.868479      43.868479      87.736958          16040 
    175000   2799.4188      99071.725      1111.7301      99515.448      98665.803      99033.924     -1790.2038      1735.1547     -1462.2935      5803.7647      2604.0584      8407.8231      169153.19      43.895169      43.895169      87.790339          16040 
    176000   2810.0304      97166.04       1118.4766      97687.657      96454.984      97355.48       638.57766     -1100.613       1004.3674      5825.7647      2601.8033      8427.5681      169343.35      43.911613      43.911613      87.823225          16040 
    177000   2764.7344      98423.626      1125.214       97921.705      98183.826      99165.348      1445.6581      829.58606      2683.6954      5731.857       2530.0418      8261.8988      169200.4       43.899253      43.899253      87.798506          16040 
    178000   2815.554       99668.174      1131.9499      100390.66      99768.314      98845.544     -1185.1724     -161.00517      693.65174      5837.2162      2613.8385      8451.0548      169129.53      43.893123      43.893123      87.786246          16040 
    179000   2802.573       102259.58      1138.685       102895.52      102768.13      101115.09     -748.19838     -1954.1         1136.7973      5810.304       2562.6815      8372.9855      168914.8       43.874539      43.874539      87.749079          16040 
    180000   2820.6724      100116.09      1145.419       99704.392      100190.76      100453.13     -1216.6976     -1085.5095      219.84619      5847.8278      2559.8159      8407.6437      169119.69      43.892272      43.892272      87.784543          16040 
    181000   2759.6919      95124.964      1152.1538      95307.029      94494.611      95573.253      13.103241     -694.29449      742.03297      5721.4028      2629.9401      8351.3429      169468.69      43.922443      43.922443      87.844886          16040 
    182000   2770.5688      96494.081      1158.8868      96847.804      95151.008      97483.433     -72.316528     -266.90874     -501.42705      5743.9528      2608.8026      8352.7554      169391.84      43.915803      43.915803      87.831606          16040 
    183000   2829.3908      98688.413      1165.6202      98023.117      99398.646      98643.476     -885.94125      904.13289     -2123.7112      5865.9028      2562.9821      8428.8849      169229.49      43.901768      43.901768      87.803537          16040 
    184000   2808.0273      100168.07      1172.355       99869.029      99699.676      100935.51     -480.4157       1279.0502      268.4415       5821.612       2617.506       8439.118       169138.2       43.893873      43.893873      87.787746          16040 
    185000   2773.7768      98014.463      1179.0928      97458.978      98628.641      97955.771     -1116.245      -2428.5367      507.2173       5750.6037      2475.5202      8226.1239      169195.11      43.898795      43.898795      87.79759           16040 
    186000   2797.4076      93956.023      1185.8267      94322.114      93933.78       93612.174      1885.5143     -1153.9415     -484.73717      5799.5951      2618.9623      8418.5575      169618.91      43.935417      43.935417      87.870834          16040 
    187000   2805.4385      98229.962      1192.5604      98238.489      98526.865      97924.531      543.0429      -1177.8226     -478.96103      5816.2447      2580.2365      8396.4812      169247.6       43.903335      43.903335      87.806669          16040 
    188000   2790.5786      101555.31      1199.2952      101484.95      101325.89      101855.09     -1135.6605      498.40404     -1098.5637      5785.4373      2557.87        8343.3073      168898.49      43.873127      43.873127      87.746254          16040 
    189000   2811.9833      102814.17      1206.0263      102814.36      102708.49      102919.68      437.02513     -1315.4423      728.3778       5829.8134      2648.7981      8478.6116      169035.85      43.885017      43.885017      87.770034          16040 
    190000   2805.0791      101140.44      1212.7586      101177.1       101387.93      100856.3       197.14843     -872.9662       1427.7693      5815.4998      2548.1354      8363.6352      169004.87      43.882336      43.882336      87.764672          16040 
    191000   2790.8807      97461.281      1219.4919      98214.111      97149.863      97019.868     -1522.8998     -511.58547     -272.18786      5786.0635      2600.8742      8386.9377      169346.94      43.911923      43.911923      87.823846          16040 
    192000   2806.4635      95213.177      1226.2234      94198.747      95210.719      96230.066     -1273.5607      119.52073     -1097.3198      5818.3698      2534.0283      8352.3981      169441.37      43.920083      43.920083      87.840166          16040 
    193000   2809.5147      98339.507      1232.9559      98567.232      97193.509      99257.78       822.19198      833.33055     -77.621326      5824.6956      2673.9087      8498.6043      169271.41      43.905393      43.905393      87.810787          16040 
    194000   2797.8423      101942.04      1239.6878      102564.52      102092.46      101169.15      505.59358     -504.80606     -515.002        5800.4964      2613.7167      8414.2131      168937.78      43.876529      43.876529      87.753057          16040 
    195000   2788.554       100252.51      1246.4191      100779.54      99673.29       100304.69     -68.73055       796.79644     -77.754967      5781.2399      2634.4651      8415.705       169094.42      43.890085      43.890085      87.780171          16040 
    196000   2782.2376      102681.58      1253.1527      103269.69      102808.78      101966.25      1140.6784     -1865.1704     -587.90596      5768.1446      2595.0404      8363.185       168821.3       43.866442      43.866442      87.732884          16040 
    197000   2791.3419      100452.73      1259.8857      101608.8       99816.704      99932.678      826.07884     -821.91974     -1434.08        5787.0197      2631.1554      8418.1751      169085.5       43.889314      43.889314      87.778627          16040 
    198000   2771.8321      99941.713      1266.6189      100920.96      98969.219      99934.962     -389.04938      478.96559      995.58796      5746.5719      2516.1928      8262.7647      168980.63      43.880239      43.880239      87.760477          16040 
    199000   2832.0623      99812.655      1273.3503      99269.209      99755.95       100412.81     -2291.4375     -1261.3084     -1397.3856      5871.4414      2563.9477      8435.3891      169133.05      43.893427      43.893427      87.786854          16040 
    200000   2787.2549      99513.498      1280.0883      99571.101      98841.778      100127.61      1018.5425     -1604.1167     -21.855122      5778.5466      2650.0297      8428.5763      169156.76      43.895478      43.895478      87.790957          16040 
    201000   2775.7728      101944.46      1286.8182      101806.25      102238.09      101789.03     -1651.5494     -1283.3879     -1702.9255      5754.7419      2552.5754      8307.3172      168889.9       43.872383      43.872383      87.744766          16040 
    202000   2804.4982      97990.389      1293.5523      95730.865      98851.654      99388.647      1220.2642     -3030.9212     -2136.9649      5814.2954      2569.5494      8383.8449      169289.32      43.906942      43.906942      87.813884          16040 
    203000   2796.3065      96389.463      1300.2846      96889.753      95711.707      96566.931      139.04704     -403.01805     -452.15342      5797.3122      2535.7591      8333.0714      169371.61      43.914055      43.914055      87.828109          16040 
    204000   2780.8404      98844.867      1307.0154      98792.642      98401.518      99340.442     -756.00171     -168.84902     -264.77772      5765.248       2625.518       8390.766       169172.85      43.896871      43.896871      87.793741          16040 
    205000   2792.83        100249.59      1313.748       100483.29      100060.24      100205.24     -1383.2542      324.45829      532.60985      5790.1048      2631.8404      8421.9453      169085.91      43.889349      43.889349      87.778698          16040 
    206000   2779.4543      101335.48      1320.4792      101954.68      100326.03      101725.74     -4.3316876      386.11921      1058.1464      5762.3742      2474.1738      8236.548       168939.88      43.876711      43.876711      87.753421          16040 
    207000   2809.614       100084.22      1327.2111      99715.608      99507.226      101029.81      1277.872      -783.93226     -867.58792      5824.9014      2592.7246      8417.626       169078.26      43.888687      43.888687      87.777374          16040 
    208000   2783.7556      98955.606      1333.943       99459.449      98712.203      98695.164      2196.2388     -42.570537      221.35032      5771.2918      2588.9354      8360.2272      169208.28      43.899935      43.899935      87.79987           16040 
    209000   2794.2793      97045.686      1340.6769      97844.845      96185.258      97106.954      2298.4518      2683.5029     -235.21161      5793.1096      2531.1539      8324.2635      169369.05      43.913834      43.913834      87.827667          16040 
    210000   2801.4304      98475.61       1347.4091      99762.096      98170.001      97494.732      1213.1912     -1983.5049      2312.9852      5807.9352      2628.2065      8436.1417      169310.83      43.908801      43.908801      87.817603          16040 
    211000   2786.3967      101498.5       1354.1417      101208.92      101245         102041.58      139.81442     -3027.3451     -2243.6934      5776.7673      2623.1371      8399.9044      169000.24      43.881935      43.881935      87.763871          16040 
    212000   2820.1403      102348.81      1360.8734      102305.32      102504.41      102236.71     -313.751        407.50419     -823.93232      5846.7246      2644.8047      8491.5293      169007.97      43.882605      43.882605      87.765209          16040 
    213000   2799.9747      101481.26      1367.6056      100479.14      102557.04      101407.6      -1253.5885     -301.60708      1319.9853      5804.9172      2580.2331      8385.1503      168963.42      43.878748      43.878748      87.757497          16040 
    214000   2813.4021      98881.399      1374.3362      97169.654      100412.15      99062.388      1020.2423     -1672.8055     -673.11616      5832.755       2613.309       8446.064       169214.62      43.900483      43.900483      87.800965          16040 
    215000   2777.7647      99565.399      1381.0681      100169.85      99045.221      99481.123     -580.69281      651.7143      -244.68733      5758.8714      2588.0942      8346.9656      169147.53      43.89468       43.89468       87.78936           16040 
    216000   2812.6243      99472.488      1387.7998      98362.618      100446.21      99608.638      759.87295     -2086.2937      665.20488      5831.1425      2640.5938      8471.7363      169202.36      43.899423      43.899423      87.798846          16040 
    217000   2807.9069      101939.29      1394.5298      102256.2       101109.73      102451.94      187.00333     -1567.334      -860.40696      5821.3623      2530.6969      8352.0591      168907.77      43.873931      43.873931      87.747862          16040 
    218000   2779.2491      101081.44      1401.2612      101429.12      100949.65      100865.55      1911.1341      833.42404      218.47998      5761.9489      2636.4878      8398.4368      169064.31      43.88748       43.88748       87.77496           16040 
    219000   2847.2556      97790.086      1407.992       98322.715      97010.412      98037.13      -852.8753      -1044.0515     -1098.7537      5902.9403      2613.0649      8516.0052      169309.79      43.908712      43.908712      87.817423          16040 
    220000   2781.1421      98068.317      1414.7239      97264.5        99578.951      97361.499     -1345.4227      40.672032      715.37061      5765.8733      2584.2657      8350.1391      169279.11      43.906059      43.906059      87.812119          16040 
    221000   2804.6051      95589.055      1421.456       95642.254      95176.456      95948.455      1126.4752      1244.333      -1339.4912      5814.517       2508.3029      8322.8199      169397.88      43.916326      43.916326      87.832651          16040 
    222000   2802.2196      98978.818      1428.1877      98768.904      98709.004      99458.546      458.48504     -533.62782      31.735118      5809.5714      2571.9802      8381.5516      169165.52      43.896236      43.896236      87.792472          16040 
    223000   2800.3731      100985.45      1434.9215      102103.62      99815.823      101036.9       221.76584     -43.021121     -1232.4676      5805.7432      2709.783       8515.5261      169070.19      43.887989      43.887989      87.775978          16040 
    224000   2800.6586      102638.36      1441.6541      102214.34      103432.7       102268.05     -451.75817      871.79263      238.56227      5806.335       2553.5084      8359.8434      168954.83      43.878005      43.878005      87.75601           16040 
    225000   2809.3926      99695.774      1448.3859      99190.174      100400.69      99496.461     -522.48297     -796.57308      1961.3835      5824.4425      2602.1323      8426.5748      169171.13      43.896721      43.896721      87.793442          16040 
    226000   2806.9618      100662.95      1455.1168      100157.97      100655.41      101175.47     -54.920726      1342.7837      1423.024       5819.403       2580.2518      8399.6548      169079.67      43.888809      43.888809      87.777618          16040 
    227000   2831.0582      95423.804      1461.8502      94878.422      96261.09       95131.899     -141.97195     -1045.0957      750.00692      5869.3597      2600.9708      8470.3305      169522.53      43.927095      43.927095      87.854189          16040 
    228000   2791.2993      96730.416      1468.5824      95694.344      97469.195      97027.709     -1930.1443      163.27891     -797.63238      5786.9314      2551.1859      8338.1173      169400.82      43.916579      43.916579      87.833159          16040 
    229000   2809.5687      98277.464      1475.3138      98233.644      98721.759      97876.988      1592.3476     -1606.0941      652.19434      5824.8076      2680.5552      8505.3628      169348.77      43.91208       43.91208       87.824161          16040 
    230000   2809.0373      100368.34      1482.0442      100721.11      100630.45      99753.469     -664.72572     -1247.7325      1546.2909      5823.706       2567.3374      8391.0433      169007.34      43.88255       43.88255       87.7651            16040 
    231000   2793.8646      101839.26      1488.7754      101358.74      101932.31      102226.73     -885.75334     -1403.5138     -262.45851      5792.2498      2527.9782      8320.228       169007.59      43.882572      43.882572      87.765144          16040 
    232000   2845.6277      100609.38      1495.5064      100787.09      100851.81      100189.24      308.72191     -382.23191      188.63982      5899.5652      2511.9729      8411.5381      169103.5       43.890871      43.890871      87.781742          16040 
    233000   2741.2595      99920.03       1502.2385      99486.016      101107.9       99166.172      1269.9824     -1036.0851     -806.21095      5683.1888      2631.9609      8315.1496      169123.8       43.892627      43.892627      87.785254          16040 
    234000   2797.8857      98461.119      1508.9697      97347.283      98845.835      99190.24       931.19491      674.68838      281.43721      5800.5863      2592.4179      8393.0041      169248.9       43.903447      43.903447      87.806894          16040 
    235000   2795.006       97142.354      1515.7014      97125.232      96613.421      97688.408      1432.3181     -1276.907      -2494.4121      5794.6162      2617.422       8412.0381      169317.86      43.909409      43.909409      87.818818          16040 
    236000   2773.7963      98753.898      1522.4325      98451.33       98142.562      99667.803     -137.66273      612.73091      698.52434      5750.6442      2587.2045      8337.8487      169247.21      43.903301      43.903301      87.806602          16040 
    237000   2818.3114      100016.39      1529.1659      100465.79      99531.165      100052.23     -834.0941      -352.16811     -1621.5041      5842.9329      2541.168       8384.101       169210.27      43.900106      43.900106      87.800212          16040 
    238000   2792.0276      102735.77      1535.8975      102968.72      101719.41      103519.17     -1655.819       74.091119      544.62837      5788.4412      2619.8814      8408.3226      168935.73      43.876351      43.876351      87.752702          16040 
    239000   2797.8983      101923.85      1542.6276      101651.18      101878.32      102242.04      1283.0474      536.17337      1967.8137      5800.6125      2627.6141      8428.2266      168936.68      43.876433      43.876433      87.752867          16040 
    240000   2800.3607      100226.32      1549.3581      100701.04      99311.169      100666.75     -30.722485     -1173.4208      660.00637      5805.7176      2574.0297      8379.7473      169063.79      43.887435      43.887435      87.774871          16040 
    241000   2804.806       95813.274      1556.0878      97629.352      95995.152      93815.317     -253.19534     -735.5809       474.99222      5814.9334      2605.0609      8419.9944      169550.12      43.929477      43.929477      87.858954          16040 
    242000   2770.7608      97007.608      1562.8188      96754.354      98593.832      95674.636     -2160.3089      383.60872      882.23716      5744.3508      2575.335       8319.6859      169385.54      43.915259      43.915259      87.830517          16040 
    243000   2789.5833      99700.19       1569.5495      99209.835      100051.46      99839.277     -1487.8532      1164.3337     -757.74429      5783.3738      2553.8751      8337.249       169211.31      43.900197      43.900197      87.800393          16040 
    244000   2813.8538      100817.32      1576.2804      100388.11      99688.43       102375.41      1207.2125      2281.7138      158.23498      5833.6914      2580.2697      8413.9611      169049.6       43.886207      43.886207      87.772415          16040 
    245000   2819.9771      101193.95      1583.0129      100973.73      101765.51      100842.6       22.784468      1597.5394      1687.2457      5846.3863      2612.7398      8459.1261      169122.65      43.892528      43.892528      87.785056          16040 
    246000   2794.7926      99106.539      1589.7454      99214.117      98816.641      99288.861     -1074.8351     -141.45443      452.79488      5794.1738      2504.9158      8299.0896      169056.51      43.886805      43.886805      87.77361           16040 
    247000   2783.2164      99178.83       1596.479       99184.034      99235.592      99116.864     -3306.1468      846.13353     -1232.5217      5770.174       2647.5282      8417.7021      169224.18      43.90131       43.90131       87.80262           16040 
    248000   2755.9802      101596.94      1603.2115      101459.84      102599.05      100731.92     -1963.8983      254.41501     -498.36029      5713.7078      2595.3802      8309.088       169039.53      43.885336      43.885336      87.770672          16040 
    249000   2803.9524      100447.29      1609.9439      100364.94      100389.31      100587.61      173.79561     -1412.228      -111.97182      5813.1638      2591.945       8405.1088      169034.11      43.884866      43.884866      87.769733          16040 
    250000   2804.9584      100532.35      1616.6767      100129.98      100062.92      101404.15      1785.2638      270.71731      238.88368      5815.2495      2625.1603      8440.4098      169122.89      43.892549      43.892549      87.785098          16040 
    251000   2818.7239      101824.02      1623.4118      100760.46      103716.23      100995.37      98.381129     -778.15779     -1538.2434      5843.7882      2595.6378      8439.426       169052.75      43.88648       43.88648       87.772959          16040 
    252000   2768.2504      100895.68      1630.1463      101165.43      100589.24      100932.39     -407.05791     -174.2019      -885.47504      5739.1464      2600.3821      8339.5285      169009.15      43.882707      43.882707      87.765414          16040 
    253000   2812.593       97439.889      1636.8782      97152.137      96506.078      98661.453      2852.3475      239.88287      0.76998745     5831.0775      2635.7308      8466.8083      169266.66      43.904982      43.904982      87.809965          16040 
    254000   2800.252       98126.803      1643.6097      99193.746      97259.001      97927.662      146.98515      988.48458     -90.438102      5805.4921      2579.1237      8384.6158      169331.6       43.910597      43.910597      87.821194          16040 
    255000   2784.0882      98360.647      1650.3415      97495.698      98044.544      99541.699      1279.7779     -1257.4687     -688.76457      5771.9814      2564.557       8336.5384      169213.74      43.900407      43.900407      87.800814          16040 
    256000   2795.0226      99903.796      1657.0728      99824.821      99357.535      100529.03     -490.77472     -1231.1046     -778.42074      5794.6506      2542.0729      8336.7235      169056.52      43.886806      43.886806      87.773611          16040 
    257000   2810.3685      103269.37      1663.8039      102617.95      103736.34      103453.82      561.04031     -522.89368      632.66202      5826.4658      2577.8156      8404.2814      168886.98      43.87213       43.87213       87.744261          16040 
    258000   2788.9167      104532.58      1670.5359      104216.88      104028.4       105352.46     -706.39936     -2423.0687     -1225.8742      5781.9918      2623.8188      8405.8106      168788.44      43.863597      43.863597      87.727193          16040 
    259000   2787.9703      98976.649      1677.2673      100016.82      98508.129      98404.995     -791.4065       477.92045     -483.85869      5780.0297      2594.1444      8374.1741      169217.71      43.90075       43.90075       87.8015            16040 
    260000   2762.9405      98582.539      1684.0005      98601.551      98506.286      98639.779      624.72503      740.17863     -268.32894      5728.1377      2562.0912      8290.229       169241.5       43.902808      43.902808      87.805615          16040 
    261000   2766.3574      100369.1       1690.7329      102203.61      99396.763      99506.914      776.49771      686.13749     -735.60612      5735.2217      2601.1773      8336.399       169097.13      43.89032       43.89032       87.78064           16040 
    262000   2830.5993      99754.335      1697.4644      99117.7        100949.69      99195.618     -719.48811     -336.47557     -1000.5001      5868.4082      2618.0124      8486.4205      169165.5       43.896234      43.896234      87.792468          16040 
    263000   2792.0512      105616.66      1704.1958      104390.89      106840.91      105618.18      558.63357      470.76027      23.488905      5788.4902      2564.0538      8352.544       168676.92      43.853934      43.853934      87.707868          16040 
    264000   2796.3568      103045.83      1710.9292      103822.72      102071.27      103243.5       534.02044     -1598.1712     -2264.4034      5797.4167      2638.1586      8435.5753      168823.99      43.866676      43.866676      87.733351          16040 
    265000   2785.0813      102116.84      1717.6618      101742.63      102731.99      101875.91      423.45802     -336.32248      1449.2152      5774.0402      2570.1589      8344.1992      168969.16      43.879246      43.879246      87.758491          16040 
    266000   2838.8615      98485.615      1724.393       98933.484      98087.005      98436.356     -1441.3437     -197.12171      2629.9786      5885.5375      2587.438       8472.9755      169360.12      43.913062      43.913062      87.826124          16040 
    267000   2800.8473      97716.543      1731.1241      99169.884      97248.608      96731.136      525.72379     -1820.375      -1266.8029      5806.7264      2558.1894      8364.9158      169268.04      43.905102      43.905102      87.810203          16040 
    268000   2820.5719      97654.992      1737.8559      98002.777      97091.792      97870.408      891.85465      1077.1902      879.07594      5847.6193      2640.4291      8488.0485      169419.44      43.918188      43.918188      87.836376          16040 
    269000   2809.5636      99253.677      1744.5873      99218.846      98962.739      99579.445     -636.90978      926.99522      364.19154      5824.7971      2559.1644      8383.9615      169169.02      43.896539      43.896539      87.793078          16040 
    270000   2795.5317      100510.96      1751.3199      102060.16      99824.96       99647.752     -1225.0055     -1151.4219     -2958.6903      5795.7061      2536.8436      8332.5497      169018.53      43.883518      43.883518      87.767037          16040 
    271000   2769.2902      101068.58      1758.0514      100346.22      101827.15      101032.36      18.859089     -437.81868     -231.24333      5741.302       2601.6357      8342.9377      168961.2       43.878556      43.878556      87.757113          16040 
    272000   2825.2886      100103.04      1764.7826      99789.423      99771.28       100748.42      708.48633     -739.73822      161.12814      5857.398       2557.3286      8414.7266      169123.67      43.892616      43.892616      87.785231          16040 
    273000   2791.8033      100463.06      1771.5129      99639.872      100675.36      101073.95      1125.1784     -505.9498       870.43257      5787.9763      2534.9402      8322.9165      168956.75      43.878171      43.878171      87.756342          16040 
    274000   2790.0359      100675.95      1778.2415      100222.7       101343.73      100461.43      752.59041      528.89549      394.68938      5784.312       2616.4001      8400.7122      169085.03      43.889273      43.889273      87.778546          16040 
    275000   2785.8416      104027.21      1784.9723      104329.78      103535.15      104216.71      1215.3106     -1680.8328     -989.31474      5775.6164      2565.9813      8341.5977      168781.77      43.863018      43.863018      87.726037          16040 
    276000   2790.3116      102536.26      1791.7036      102787.28      103208.76      101612.75     -333.31529     -605.31095      613.74793      5784.8837      2657.2722      8442.156       168952.82      43.877831      43.877831      87.755663          16040 
    277000   2801.826       100665.26      1798.4368      100022.51      100844.32      101128.95      875.18816      69.440619      682.53139      5808.7554      2605.3296      8414.085       169093.1       43.889971      43.889971      87.779942          16040 
    278000   2816.3355      96728.183      1805.1686      96173.594      96290.756      97720.198      1543.7916     -1003.581      -311.29938      5838.8366      2488.1602      8326.9968      169226.39      43.901501      43.901501      87.803002          16040 
    279000   2785.6902      98125.791      1811.9004      97148.319      99006.941      98222.112     -81.032826      524.53976      238.9145       5775.3026      2517.7451      8293.0477      169249.26      43.903479      43.903479      87.806957          16040 
    280000   2809.3329      99662.438      1818.6342      99103.39       98909.14       100974.79     -804.92599      746.65293      531.42934      5824.3187      2544.326       8368.6447      169144.46      43.894415      43.894415      87.788829          16040 
    281000   2818.9793      100637.73      1825.3664      101017.05      100412.09      100484.05      494.72887     -1598.5772      1167.6822      5844.3176      2579.3177      8423.6353      169094.33      43.890077      43.890077      87.780155          16040 
    282000   2846.2549      102596.77      1832.0979      102601.68      102600.84      102587.79      2392.441       203.26504      65.091665      5900.8656      2630.649       8531.5146      168885.48      43.872001      43.872001      87.744002          16040 
    283000   2795.8382      99023.539      1838.8308      98860.059      98847.592      99362.966     -1429.025       643.86224     -398.462        5796.3415      2627.415       8423.7565      169294.04      43.90735       43.90735       87.8147            16040 
    284000   2806.0417      98602.694      1845.5632      97632.451      99472.251      98703.381     -190.72147     -817.93459     -793.43642      5817.4954      2543.1379      8360.6334      169170.99      43.896709      43.896709      87.793419          16040 
    285000   2805.6829      98620.084      1852.2948      98986.203      97714.24       99159.809      1303.2297     -1454.1774      495.13124      5816.7515      2614.392       8431.1435      169250.94      43.903623      43.903623      87.807247          16040 
    286000   2807.7786      99294.351      1859.028       97911.05       99991.176      99980.826      2114.9209      1039.6989      592.47791      5821.0964      2570.9916      8392.088       169120.71      43.89236       43.89236       87.784721          16040 
[...]
   3930000   3089.3055      99957.23       7072.7909      109890.04      108336.84      81644.807      3068.2075      920.37676      2954.0615      6404.7589      3763.9968      10168.756      170514.26      43.803042      43.803042      88.869384          16040 
   3931000   3089.1255      99521.748      7080.4152      107796.43      109659.98      81108.825     -1649.9311     -346.89484      490.17881      6404.3856      3763.6148      10168          170497.73      43.801626      43.801626      88.866511          16040 
   3932000   3085.0876      101551.17      7088.0432      111327.42      110268.43      83057.665      2188.8003      762.78617     -668.81577      6396.0143      3781.013       10177.027      170345.9       43.788621      43.788621      88.840125          16040 
   3933000   3107.1526      104182.52      7095.6788      113432.83      113282.21      85832.532     -1167.5057     -262.77069     -3399.1975      6441.7596      3749.9049      10191.665      170101.79      43.767694      43.767694      88.797667          16040 
   3934000   3079.2959      102158.69      7103.309       111161.84      111453.6       83860.641     -318.11745      2269.0964     -325.44089      6384.0069      3793.7207      10177.728      170318.54      43.786276      43.786276      88.835369          16040 
   3935000   3104.6582      100225.47      7110.9381      108019.82      109644.39      83012.213      1019.9056     -3139.8695      1326.4571      6436.5881      3732.9774      10169.565      170442.84      43.796925      43.796925      88.856974          16040 
   3936000   3107.4919      99599.993      7118.5623      108652.08      108819.22      81328.683     -571.20412      1038.7302     -50.522757      6442.4629      3717.0487      10159.512      170597.93      43.810205      43.810205      88.883917          16040 
   3937000   3115.1022      98340.556      7126.1947      106387.67      108186.56      80447.43      -6.5560183      62.453966      97.816915      6458.2406      3699.0404      10157.281      170631.45      43.813075      43.813075      88.889738          16040 
   3938000   3107.0076      94285.204      7133.8279      104306.11      101973.11      76576.394      784.46782     -582.47355     -811.62711      6441.459       3690.5577      10132.017      171051.29      43.848979      43.848979      88.962583          16040 
   3939000   3112.4624      96770.892      7141.458       103633.48      107397.08      79282.109      823.58965     -1793.8379     -81.757475      6452.7678      3698.8145      10151.582      170712.75      43.820032      43.820032      88.903854          16040 
   3940000   3102.6952      98165.647      7149.0839      106803.91      107082.92      80610.11       1259.1532      1918.1731      118.86095      6432.5185      3721.7316      10154.25       170653.26      43.814941      43.814941      88.893526          16040 
   3941000   3112.7066      99380.234      7156.7122      108385.13      108331.06      81424.505     -460.02413      2724.5194      1310.6875      6453.2741      3708.1055      10161.38       170529.61      43.804356      43.804356      88.87205           16040 
   3942000   3114.8992      101967.39      7164.3385      112210.46      110136.27      83555.452      235.83371     -301.75089      1398.7571      6457.8199      3715.2689      10173.089      170342.71      43.788347      43.788347      88.83957           16040 
   3943000   3118.4798      103243.78      7171.9699      111691.49      111672.63      86367.228     -1925.2342     -738.78917     -1408.413       6465.2432      3708.8211      10174.064      170326.3       43.786941      43.786941      88.836717          16040 
   3944000   3117.675       103619.53      7179.6044      111126.16      114127.31      85605.128     -546.3555      -1367.2258      84.862091      6463.5747      3717.8034      10181.378      170210.36      43.777003      43.777003      88.816555          16040 
   3945000   3076.2245      103904.04      7187.2329      111633.91      114009.88      86068.338     -1090.289      -938.76995      2625.8808      6377.6394      3801.1114      10178.751      170242.33      43.779744      43.779744      88.822116          16040 
   3946000   3095.0933      100718.05      7194.862       108836.88      110677.85      82639.428     -182.62452     -312.29958     -1418.053       6416.7581      3743.9055      10160.664      170520.33      43.803562      43.803562      88.870438          16040 
   3947000   3093.0644      98653.647      7202.4889      108590.89      107412.61      79957.445     -379.38024      566.66856     -1283.3048      6412.5518      3747.7046      10160.256      170521.11      43.803629      43.803629      88.870574          16040 
   3948000   3074.3065      99377.261      7210.1164      108863.18      108596.56      80672.04       1714.9952      2242.8704      737.44529      6373.6628      3785.7366      10159.399      170526.29      43.804072      43.804072      88.871474          16040 
   3949000   3105.9227      95767.786      7217.7442      105146.07      105014.28      77143.006      1145.1005      1429.4165     -3358.4546      6439.2096      3708.2344      10147.444      170714.54      43.820184      43.820184      88.904163          16040 
   3950000   3083.8447      93486.075      7225.3729      103488.04      102630.91      74339.277     -683.45091      2583.4609      1832.03        6393.4375      3735.2433      10128.681      171021.99      43.846476      43.846476      88.957503          16040 
   3951000   3092.0019      98545.664      7233.0002      107170.68      107832.04      80634.273      1100.1656      2322.8564      1893.4562      6410.349       3744.6519      10155.001      170587.03      43.809272      43.809272      88.882024          16040 
   3952000   3113.4259      98433.805      7240.6327      107369.21      106549.39      81382.818     -1215.6624      3100.2081     -182.91681      6454.7654      3702.5271      10157.293      170547.32      43.805872      43.805872      88.875126          16040 
   3953000   3111.0299      98788.702      7248.266       107506.06      108524.73      80335.313      2155.4849     -373.8918       1480.1421      6449.7979      3711.6901      10161.488      170467.1       43.799003      43.799003      88.861189          16040 
   3954000   3112.5211      103066.86      7255.8936      111360.79      111557.15      86282.638      1403.8155     -940.25487      393.20006      6452.8896      3725.5886      10178.478      170198.83      43.776015      43.776015      88.814549          16040 
   3955000   3124.8487      103983.24      7263.52        113014.24      113650.49      85284.971     -861.92245      2467.7252      1120.2967      6478.4472      3709.9859      10188.433      170039.8       43.762376      43.762376      88.786879          16040 
   3956000   3085.3029      103324.71      7271.1575      111052.67      113389.03      85532.423     -2286.6948      2206.4615     -917.32423      6396.4606      3780.9769      10177.438      170192.07      43.775436      43.775436      88.813375          16040 
   3957000   3112.7652      99808.007      7278.7919      106927.92      110638.26      81857.84      -652.19677     -998.0484      -755.68917      6453.3956      3703.6082      10157.004      170512.13      43.802859      43.802859      88.869013          16040 
   3958000   3094.2924      99542.983      7286.4234      109206.57      108199.26      81223.113     -117.67537      710.85538      1193.1454      6415.0977      3743.3446      10158.442      170481.65      43.800249      43.800249      88.863717          16040 
   3959000   3098.8772      99542.796      7294.0496      108937.31      108692.62      80998.459      181.99403     -659.42         675.12372      6424.603       3728.482       10153.085      170565.47      43.807426      43.807426      88.878279          16040 
   3960000   3089.7289      100186.65      7301.6807      108825.15      109661.26      82073.536      218.9206       3298.6081      986.17992      6405.6367      3753.7144      10159.351      170450.5       43.797582      43.797582      88.858305          16040 
   3961000   3101.7394      101863.34      7309.3075      111388.9       110768.59      83432.523      822.76187      357.37711     -1973.1363      6430.5369      3739.2978      10169.835      170283.02      43.783232      43.783232      88.829193          16040 
   3962000   3114.9442      104251.75      7316.9355      112619.02      113571.68      86564.55      -468.85669      1906.1139     -1951.7271      6457.9131      3724.1624      10182.075      170086.08      43.766347      43.766347      88.794934          16040 
   3963000   3088.2793      103439.78      7324.5684      113883.71      111691.35      84744.297      1039.602       2737.3909     -30.128554      6402.6313      3770.9236      10173.555      170212.32      43.777172      43.777172      88.816897          16040 
   3964000   3098.4491      99761.82       7332.1932      109541.29      109295.89      80448.282      453.10438      2229.279       1284.5098      6423.7154      3733.7994      10157.515      170458.4       43.798258      43.798258      88.859678          16040 
   3965000   3097.0313      100996.77      7339.8196      110060.86      110404.51      82524.935     -481.30407      1178.898       2187.2681      6420.7761      3742.6799      10163.456      170363.07      43.790092      43.790092      88.843109          16040 
   3966000   3091.6607      99257.757      7347.4451      107271.8       107915.94      82585.538     -91.739706      1807.3166      2840.9653      6409.6416      3741.7628      10151.404      170552.09      43.806281      43.806281      88.875955          16040 
   3967000   3108.6869      97305.746      7355.0735      106621.53      105662.46      79633.247     -733.01776     -164.50281     -811.00191      6444.9404      3699.1426      10144.083      170666.69      43.816091      43.816091      88.895857          16040 
   3968000   3082.9265      98863.953      7362.6998      107875.91      108671.5       80044.446      2035.6896      2785.5826     -16.163783      6391.5339      3755.7117      10147.246      170618.19      43.81194       43.81194       88.887436          16040 
   3969000   3098.387       95918.097      7370.3253      104255.71      104763.35      78735.229     -2305.813       925.42041      764.28845      6423.5866      3711.3867      10134.973      170807.91      43.828173      43.828173      88.92037           16040 
   3970000   3092.776       95697.762      7377.9529      106274.79      104878.34      75940.162     -1735.6636     -134.59337     -782.60516      6411.954       3722.8367      10134.791      170801.04      43.827585      43.827585      88.919177          16040 
   3971000   3093.6123      99268.972      7385.5763      107968.81      107514.37      82323.735      2006.3213      1702.9126     -1033.1528      6413.6877      3733.3146      10147.002      170597.57      43.810174      43.810174      88.883853          16040 
   3972000   3105.5885      99460.514      7393.2079      109095.42      110008.66      79277.454     -1083.3085     -1014.9849     -1493.5145      6438.5168      3717.0207      10155.538      170454.28      43.797905      43.797905      88.858962          16040 
   3973000   3108.7738      100894.1       7400.8342      109834.12      109820.9       83027.277      728.68463      563.02002      243.4295       6445.1206      3714.7416      10159.862      170380.72      43.791604      43.791604      88.846178          16040 
   3974000   3119.0049      100429.97      7408.4604      109203.14      108229.29      83857.463      166.71225     -3219.2938     -973.00843      6466.3318      3691.148       10157.48       170415.74      43.794604      43.794604      88.852264          16040 
   3975000   3064.9828      101980.55      7416.0867      111661.45      111869.26      82410.945     -1141.3364      935.61466      582.22523      6354.333       3810.4099      10164.743      170298.87      43.784591      43.784591      88.831948          16040 
   3976000   3096.1615      103626.46      7423.7132      114044.7       112088.4       84746.3        693.01786      2018.2943      1666.1642      6418.9727      3754.7685      10173.741      170151.53      43.771959      43.771959      88.806322          16040 
   3977000   3124.9318      102789.31      7431.3417      112684.79      111628.42      84054.709      291.62323     -842.93031     -1722.0502      6478.6194      3692.8026      10171.422      170183.42      43.774694      43.774694      88.81187           16040 
   3978000   3078.8747      102161.83      7438.9693      110577.99      111516.7       84390.805      1827.5669      21.451929     -1705.4722      6383.1338      3779.9944      10163.128      170314.16      43.7859        43.7859        88.834606          16040 
   3979000   3111.8872      99299.002      7446.5911      108374.72      109233.17      80289.123     -336.74319      479.51936     -1686.8672      6451.5753      3700.2546      10151.83       170486.9       43.800699      43.800699      88.864629          16040 
   3980000   3102.1138      98357.924      7454.2139      108502.2       106414.1       80157.466      339.89267      208.9526       1882.6422      6431.313       3715.8294      10147.142      170554.76      43.80651       43.80651       88.876419          16040 
   3981000   3100.7381      98479.29       7461.8396      106945.64      108726.48      79765.752      1582.763      -737.95353     -1381.6541      6428.4609      3714.3821      10142.843      170612.82      43.811479      43.811479      88.886502          16040 
   3982000   3117.2648      97982.655      7469.4691      106376.21      109225.26      78346.494     -1124.4094      1057.3597      1002.5865      6462.7242      3679.9698      10142.694      170607.5       43.811024      43.811024      88.885578          16040 
   3983000   3092.1088      97310.596      7477.1018      105636.3       106420.62      79874.869     -1558.9367      1736.1276     -2288.121       6410.5707      3728.4105      10138.981      170663.67      43.815832      43.815832      88.895333          16040 
   3984000   3075.0189      96954.307      7484.7329      108139.7       105579.6       77143.627      374.29822      1538.417       682.84314      6375.1399      3763.2417      10138.382      170667.16      43.81613       43.81613       88.895938          16040 
   3985000   3108.0464      100140.14      7492.362       109955.88      109568.75      80895.782      1942.0874      1604.6277     -3445.3472      6443.6125      3707.3272      10150.94       170447.85      43.797354      43.797354      88.857843          16040 
   3986000   3119.2535      102166.93      7499.9889      112406.98      111014.28      83079.541     -211.08197      1244.1777     -967.10969      6466.8471      3694.6306      10161.478      170274.01      43.78246       43.78246       88.827625          16040 
   3987000   3120.408       101321.34      7507.6108      109226.01      111178.2       83559.799     -2189.3869      211.56246      2137.0033      6469.2407      3695.3682      10164.609      170220.97      43.777913      43.777913      88.818401          16040 
   3988000   3117.5339      102050.94      7515.2441      110665.85      111434.82      84052.146      2230.1795      1157.4969     -365.25081      6463.2821      3699.3662      10162.648      170246.57      43.780108      43.780108      88.822853          16040 
   3989000   3099.8338      101741.2       7522.8759      111048.45      109932.25      84242.906     -1306.6896     -26.2619       -1326.3001      6426.5863      3733.2453      10159.832      170289.19      43.78376       43.78376       88.830264          16040 
   3990000   3126.8817      100235.49      7530.5         108985.75      108692.92      83027.797      388.97031      2694.8315      128.03196      6482.662       3669.3116      10151.974      170404.75      43.793662      43.793662      88.850354          16040 
   3991000   3110.8189      99839.418      7538.1275      108587.33      109896.41      81034.51       1531.3293     -774.26422      2606.7999      6449.3605      3698.2624      10147.623      170469.78      43.799232      43.799232      88.861655          16040 
   3992000   3108.9393      100239.63      7545.7595      109714.24      110356.01      80648.639      733.3459       1605.5425     -43.01908       6445.4637      3698.1456      10143.609      170532         43.804561      43.804561      88.872466          16040 
   3993000   3115.2704      99044.768      7553.3903      109952.11      107378.78      79803.418      357.87956      1905.6892     -1488.1779      6458.5894      3687.9031      10146.492      170476.93      43.799845      43.799845      88.862897          16040 
   3994000   3083.0529      103862.47      7561.0244      113494.45      112149.9       85943.053     -1014.0824     -726.57559     -523.5731       6391.796       3771.5906      10163.387      170199.86      43.776104      43.776104      88.81473           16040 
   3995000   3106.6312      103753.12      7568.6545      113144.42      113532.21      84582.741     -1819.1129     -295.43263      2659.9451      6440.6785      3728.8613      10169.54       170102.4       43.767746      43.767746      88.797774          16040 
   3996000   3098.3728      101277.86      7576.2874      110394.08      111729.89      81709.608     -1136.9944     -507.45754      421.30982      6423.5573      3730.5851      10154.142      170338.07      43.78795       43.78795       88.838764          16040 
   3997000   3108.3107      102053.49      7583.9165      111606.01      110213.92      84340.548     -635.95337      1191.7533      549.08858      6444.1606      3711.0916      10155.252      170315.7       43.786033      43.786033      88.834874          16040 
   3998000   3111.354       101416.41      7591.5473      111008.04      111099.33      82141.851      919.97162      2702.7347      264.0013       6450.47        3705.6995      10156.169      170295.9       43.784336      43.784336      88.831432          16040 
   3999000   3071.7021      101261.5       7599.1713      110644.56      111375.54      81764.4       -2086.2876      896.49846     -835.95034      6368.2635      3784.5412      10152.805      170348.61      43.788853      43.788853      88.840596          16040 
   4000000   3080.181       99873.809      7606.8025      108006.8       109098.49      82516.136      861.24066      2955.5989     -909.6593       6385.8419      3759.6955      10145.537      170453.16      43.797809      43.797809      88.858767          16040 
Loop time of 7606.8 on 8 procs for 1000000 steps with 16040 atoms

Performance: 5.679 ns/day, 4.226 hours/ns, 131.461 timesteps/s
58.9% CPU use with 1 MPI tasks x 8 OpenMP threads

MPI task timing breakdown:
Section |  min time  |  avg time  |  max time  |%varavg| %total
---------------------------------------------------------------
Pair    | 7336.2     | 7336.2     | 7336.2     |   0.0 | 96.44
Neigh   | 8.5622     | 8.5622     | 8.5622     |   0.0 |  0.11
Comm    | 34.247     | 34.247     | 34.247     |   0.0 |  0.45
Output  | 1.3729     | 1.3729     | 1.3729     |   0.0 |  0.02
Modify  | 200.32     | 200.32     | 200.32     |   0.0 |  2.63
Other   |            | 26.06      |            |       |  0.34

Nlocal:          16040 ave       16040 max       16040 min
Histogram: 1 0 0 0 0 0 0 0 0 0
Nghost:          13663 ave       13663 max       13663 min
Histogram: 1 0 0 0 0 0 0 0 0 0
Neighs:              0 ave           0 max           0 min
Histogram: 1 0 0 0 0 0 0 0 0 0
FullNghs:   1.3849e+06 ave  1.3849e+06 max  1.3849e+06 min
Histogram: 1 0 0 0 0 0 0 0 0 0

Total # of neighbors = 1384896
Ave neighs/atom = 86.34015
Neighbor list builds = 27034
Dangerous builds = 0
Total wall time: 7:45:09
