
atom_style atomic
units metal
boundary p p p
#atom_modify sort 0 0.0
newton on

read_data data.lammps
Reading data file ...
  orthogonal box = (0 0 0) to (43.790145 43.790145 87.58029)
  1 by 1 by 1 MPI processor grid
  reading atoms ...
  16040 atoms
  read_data CPU = 0.038 seconds
# replicate 10 10 20

### interactions

pair_style flare
pair_coeff * * lmp.flare
Reading potential file lmp.flare with DATE: Thu

# compute unc all flare/std/atom L_inv_lmp.flare sparse_desc_lmp.flare
# compute MaxUnc all reduce max c_unc

mass 1 12.011000
mass 2 28.085000

thermo_style custom step temp press cpu pxx pyy pzz pxy pxz pyz ke pe etotal vol lx ly lz atoms    #c_MaxUnc
thermo 1000
timestep 0.0005
restart 100000 restart_*.dat

#################### Equilibrate at P and T_es ##############################
velocity all create $T 41928459 rot yes dist gaussian
velocity all create 3600 41928459 rot yes dist gaussian
fix mom all momentum 1000 linear 1 1 1 angular

fix 1 all npt temp $T $T $(100.0*dt) iso $P $P $(1000.0*dt)
fix 1 all npt temp 3600 $T $(100.0*dt) iso $P $P $(1000.0*dt)
fix 1 all npt temp 3600 3600 $(100.0*dt) iso $P $P $(1000.0*dt)
fix 1 all npt temp 3600 3600 0.050000000000000002776 iso $P $P $(1000.0*dt)
fix 1 all npt temp 3600 3600 0.050000000000000002776 iso 900000 $P $(1000.0*dt)
fix 1 all npt temp 3600 3600 0.050000000000000002776 iso 900000 900000 $(1000.0*dt)
fix 1 all npt temp 3600 3600 0.050000000000000002776 iso 900000 900000 0.5
dump 1 all custom 1000 1equil.bin id type x y z vx vy vz
run   10000 # report performance
Neighbor list info ...
  update every 1 steps, delay 10 steps, check yes
  max neighbors/atom: 2000, page size: 100000
  master list distance cutoff = 6
  ghost atom cutoff = 6
  binsize = 6, bins = 8 8 15
  1 neighbor lists, perpetual/occasional/extra = 1 0 0
  (1) pair flare/kk, perpetual
      attributes: full, newton on, kokkos_device
      pair build: full/bin/kk/device
      stencil: full/bin/3d
      bin: kk/device
Per MPI rank memory allocation (min/avg/max) = 16.04 | 16.04 | 16.04 Mbytes
   Step          Temp          Press           CPU            Pxx            Pyy            Pzz            Pxy            Pxz            Pyz           KinEng         PotEng         TotEng         Volume           Lx             Ly             Lz          Atoms   
         0   3600           81902.079      0              82518.078      81452.516      81735.644      1102.7296     -207.42286     -845.17692      7463.5325     -2985.8921      4477.6404      167941.93      43.790145      43.790145      87.58029           16040 
      1000   3678.6141      900940.62      7.3367707      900917.78      900361.59      901542.48      1463.8711     -1390.2327      2269.77        7626.5155      12309.744      19936.26       132995.06      40.513693      40.513693      81.027386          16040 
      2000   3573.8662      900253.56      14.958946      897686.96      903120.41      899953.3       37.390302     -2901.4047      4973.7428      7409.3518      12008.119      19417.471      132714.99      40.485234      40.485234      80.970469          16040 
      3000   3633.7962      899572.8       22.572923      899281.45      898143.84      901293.09      1329.7622      812.0892       3699.1621      7533.5989      12232.735      19766.334      132763.4       40.490157      40.490157      80.980314          16040 
      4000   3596.0241      899005.37      30.180701      899362.66      902040.66      895612.79     -498.4616      -928.77018      2658.331       7455.2897      12056.014      19511.304      132765.07      40.490326      40.490326      80.980652          16040 
      5000   3612.2172      898964.38      37.789008      898065.24      896025.37      902802.53     -970.00109     -2292.0151      4573.5499      7488.8612      12214.407      19703.268      132679.76      40.481652      40.481652      80.963304          16040 
      6000   3583.5492      897965.8       45.400793      896355.41      900857.57      896684.43     -2147.6517      1329.604       3169.933       7429.4266      12183.916      19613.342      132704.99      40.484218      40.484218      80.968435          16040 
      7000   3590.1219      900397.48      53.017429      897074.14      901436.5       902681.8       3625.3749      2368.6298     -2812.8243      7443.0532      12176.085      19619.138      132704.61      40.48418       40.48418       80.968359          16040 
      8000   3653.9211      897386.4       60.628358      898584.88      897797.38      895776.93     -533.07816      3323.5402     -3619.332       7575.3219      12109.764      19685.086      132755.46      40.48935       40.48935       80.9787            16040 
      9000   3597.2643      901064.68      68.235623      901994.23      901406.6       899793.2       6648.5997      3649.9939      194.69741      7457.8609      12087.917      19545.778      132699.8       40.48369       40.48369       80.96738           16040 
     10000   3617.9984      899445.06      75.840962      901785.53      897638.53      898911.11      3339.5107      4288.7226      258.47367      7500.8469      12165.497      19666.344      132721.77      40.485924      40.485924      80.971848          16040 
Loop time of 75.841 on 8 procs for 10000 steps with 16040 atoms

Performance: 5.696 ns/day, 4.213 hours/ns, 131.855 timesteps/s
61.2% CPU use with 1 MPI tasks x 8 OpenMP threads

MPI task timing breakdown:
Section |  min time  |  avg time  |  max time  |%varavg| %total
---------------------------------------------------------------
Pair    | 72.755     | 72.755     | 72.755     |   0.0 | 95.93
Neigh   | 0.10838    | 0.10838    | 0.10838    |   0.0 |  0.14
Comm    | 0.37808    | 0.37808    | 0.37808    |   0.0 |  0.50
Output  | 0.013849   | 0.013849   | 0.013849   |   0.0 |  0.02
Modify  | 2.3207     | 2.3207     | 2.3207     |   0.0 |  3.06
Other   |            | 0.2648     |            |       |  0.35

Nlocal:          16040 ave       16040 max       16040 min
Histogram: 1 0 0 0 0 0 0 0 0 0
Nghost:          14620 ave       14620 max       14620 min
Histogram: 1 0 0 0 0 0 0 0 0 0
Neighs:              0 ave           0 max           0 min
Histogram: 1 0 0 0 0 0 0 0 0 0
FullNghs:  1.76345e+06 ave 1.76345e+06 max 1.76345e+06 min
Histogram: 1 0 0 0 0 0 0 0 0 0

Total # of neighbors = 1763452
Ave neighs/atom = 109.9409
Neighbor list builds = 264
Dangerous builds = 0
run  990000
Per MPI rank memory allocation (min/avg/max) = 16.47 | 16.47 | 16.47 Mbytes
   Step          Temp          Press           CPU            Pxx            Pyy            Pzz            Pxy            Pxz            Pyz           KinEng         PotEng         TotEng         Volume           Lx             Ly             Lz          Atoms   
     10000   3617.9984      899445.06      0              901785.53      897638.53      898911.11      3339.5107      4288.7226      258.47367      7500.8469      12165.497      19666.344      132721.77      40.485924      40.485924      80.971848          16040 
     11000   3569.3769      901573.25      7.6061914      903377.5       901287.76      900054.5      -5945.4199      1651.9425     -511.16164      7400.0446      12147.325      19547.37       132665.25      40.480176      40.480176      80.960352          16040 
     12000   3624.6889      897672.77      15.214482      898257         895213.18      899548.14      6715.8478     -1282.8116     -738.06953      7514.7177      12065.261      19579.978      132728.13      40.486571      40.486571      80.973142          16040 
     13000   3619.004       910849.03      22.825836      911389.82      907285.07      913872.19      968.46711      108.92493     -448.02522      7502.9316      12335.706      19838.638      132448.3       40.458098      40.458098      80.916196          16040 
     14000   3607.5205      884239.88      30.438615      883995         883305.22      885419.41      883.1785      -2578.529       2113.2584      7479.1241      11833.613      19312.737      133091.71      40.523505      40.523505      81.047011          16040 
     15000   3591.9409      901850.82      38.049334      901212.79      901696.26      902643.41      772.08918      1658.9468      3190.8622      7446.8243      12130.525      19577.35       132660.63      40.479707      40.479707      80.959413          16040 
     16000   3600.026       900115.16      45.659507      900152.56      899092.96      901099.98     -332.91102      263.6734      -3795.2649      7463.5863      12087.205      19550.791      132676.34      40.481305      40.481305      80.962609          16040 
     17000   3575.5813      897956.43      53.264814      897769.29      895475.06      900624.95     -3013.9177     -5400.7537     -3337.3909      7412.9076      12131.261      19544.169      132734.94      40.487264      40.487264      80.974527          16040 
     18000   3558.3203      902345.16      60.876862      903079.29      902330.55      901625.63      4229.5291     -715.01333      1144.746       7377.1219      12150.362      19527.484      132653.72      40.479003      40.479003      80.958006          16040 
     19000   3644.3333      899936.02      68.486665      903051.92      899197.31      897558.82     -3401.6948      1416.9495      950.46516      7555.4445      12102.021      19657.465      132770.7       40.490898      40.490898      80.981797          16040 
     20000   3604.7445      903315.99      76.09806       902477.18      903290.05      904180.74     -2583.4243      135.02282      1502.9653      7473.3687      12082.703      19556.072      132642.9       40.477903      40.477903      80.955805          16040 
     21000   3611.3833      895208.6       83.712012      896236.49      896586.8       892802.51     -1161.8761     -2279.5956      5.0009058      7487.1324      12059.103      19546.236      132828.26      40.496749      40.496749      80.993498          16040 
     22000   3575.8484      909028.77      91.320071      909555.21      907094.35      910436.74     -732.87327     -2257.9165      615.79973      7413.4614      12212.602      19626.063      132478.72      40.461195      40.461195      80.92239           16040 
     23000   3623.8489      896167.05      98.931         894863.26      898821.18      894816.71     -1047.0336      1867.9513     -2656.266       7512.9761      12023.038      19536.014      132788.45      40.492703      40.492703      80.985407          16040 
     24000   3581.9709      900943.31      110.56092      900640.61      900683.64      901505.68     -1922.9216     -2662.3713      1381.4363      7426.1544      12104.352      19530.506      132667.19      40.480373      40.480373      80.960747          16040 
     25000   3658.9069      899657.01      118.18155      899497.74      900486.99      898986.29      1008.9488      3325.0082     -1779.6374      7585.6584      12068.22       19653.879      132694.99      40.483201      40.483201      80.966403          16040 
     26000   3578.3725      898286         125.79086      898319.32      895488.58      901050.09     -2527.2208     -1758.7696      2702.864       7418.6943      12118.159      19536.853      132718.67      40.485608      40.485608      80.971217          16040 
     27000   3594.5299      903727.69      133.40001      902508.6       902206.67      906467.79     -3867.2568     -1829.1375     -2793.4859      7452.1919      12073.459      19525.651      132573.25      40.470817      40.470817      80.941633          16040 
     28000   3607.4855      889515.58      141.01001      889496.69      889160.79      889889.25     -4846.6119     -2026.7457     -2189.7462      7479.0515      11919.934      19398.985      132973.6       40.511514      40.511514      81.023029          16040 
     29000   3579.418       910236.59      148.62634      910027.93      912753.82      907928.03     -1363.7331     -6430.9488      2070.6464      7420.8618      12202.584      19623.446      132443         40.457558      40.457558      80.915116          16040 
     30000   3578.9362      896731.75      156.23638      896831.02      897834.74      895529.47      1277.3358     -5288.1626      464.18719      7419.8629      12002.951      19422.814      132771.17      40.490947      40.490947      80.981893          16040 
     31000   3641.033       903039.98      163.84909      904588.26      903581.73      900949.96      3385.7108      1017.5102      789.40113      7548.6022      12237.54       19786.142      132655.97      40.479233      40.479233      80.958466          16040 
     32000   3595.3852      900527.3       171.4637       903014.78      899760.72      898806.39     -1158.8299     -2218.3762      1629.6347      7453.9651      12069.223      19523.188      132671.41      40.480803      40.480803      80.961605          16040 
     33000   3616.4179      897194.1       179.07453      896991.01      898147.71      896443.59      1131.2537      3407.1041     -1061.1043      7497.5701      11947.483      19445.053      132770.66      40.490894      40.490894      80.981789          16040 
     34000   3624.2794      904083.72      186.68438      904303.52      904511.29      903436.33      1735.1896     -4405.9915      1749.8685      7513.8686      12089.977      19603.846      132588.21      40.472339      40.472339      80.944678          16040 
     35000   3576.2254      899928.15      194.29723      898502.34      901163.25      900118.85      4183.4298      1351.7167      6107.5593      7414.2429      12035.848      19450.09       132671.74      40.480836      40.480836      80.961672          16040 
     36000   3640.8511      901211.94      201.90921      899420.97      903810.82      900404.02     -5157.2452      3044.9316     -102.25198      7548.2252      12069.533      19617.758      132647.85      40.478406      40.478406      80.956813          16040 
     37000   3567.3479      898398.25      209.52333      895656.61      899820.3       899717.83     -98.20724       405.68676      860.21286      7395.8381      12032.286      19428.124      132698.29      40.483537      40.483537      80.967074          16040 
     38000   3589.2654      902607.18      217.13442      903742.43      903677.32      900401.8       3808.7199     -5461.6897      2850.0729      7441.2775      12146.787      19588.065      132636.39      40.477241      40.477241      80.954481          16040 
     39000   3618.4066      896235.96      224.74322      897510.3       895806.99      895390.6      -3688.6628     -2295.9184     -6469.255       7501.693       11902.275      19403.968      132757.53      40.489559      40.489559      80.979119          16040 
     40000   3531.8935      900544.83      232.36159      900411.84      898455.79      902766.85      1428.6843     -1656.4723      1149.2577      7322.3339      12072.78       19395.114      132658.27      40.479466      40.479466      80.958932          16040 
     41000   3567.64        902101.6       239.97827      901330.35      902612.44      902361.99     -2181.5057     -1519.6827      616.20288      7396.4436      12113.585      19510.029      132669.75      40.480633      40.480633      80.961267          16040 
     42000   3577.4235      900254.16      247.59383      903008.94      900466.64      897286.9       6767.8591     -4626.056       1210.4687      7416.7267      11974.971      19391.698      132669.48      40.480606      40.480606      80.961213          16040 
     43000   3567.6015      897925.24      255.21422      898837.14      894873         900065.58      3024.1809     -72.941004      1874.0422      7396.3637      12047.724      19444.087      132786.54      40.492509      40.492509      80.985019          16040 
     44000   3622.6035      899638.97      262.82627      899336.29      900869.26      898711.35      1362.5275      6290.7919     -4375.9385      7510.3941      12027.567      19537.961      132790.4       40.492902      40.492902      80.985803          16040 
     45000   3621.5352      901593.28      270.44406      902663.97      900216.89      901898.99      1694.3975     -6163.2672      2553.9199      7508.1793      11930.276      19438.455      132684.13      40.482096      40.482096      80.964192          16040 
     46000   3663.5075      899134.87      278.06313      898830.64      899711.07      898862.91     -2792.8843      571.77975     -100.46986      7595.1964      12027.142      19622.339      132803.28      40.49421       40.49421       80.988421          16040 
     47000   3591.9548      901697.15      285.6793       901418.07      898867.65      904805.74     -2198.3203      352.24816     -2242.4313      7446.8532      12052.945      19499.798      132608.35      40.474388      40.474388      80.948775          16040 
     48000   3652.1032      891673.22      293.29615      892097.91      891318.64      891603.1      -1264.1011      2980.0982      184.91712      7571.5529      11831.6        19403.153      132974.34      40.511589      40.511589      81.023178          16040 
     49000   3599.9259      906233.59      300.91791      906201.58      907189.5       905309.69     -2280.3793      1083.9482     -1601.6905      7463.3789      12097.729      19561.108      132536.04      40.46703       40.46703       80.934059          16040 
     50000   3604.422       895085.03      308.52579      894374.88      896027.89      894852.32      4652.8119     -1869.253       1899.4403      7472.7002      11964.45       19437.151      132850.27      40.498986      40.498986      80.997972          16040 
     51000   3602.5015      905658.86      316.1475       905630.32      906692.31      904653.95     -374.1917      -2044.1262      1484.468       7468.7187      12104.97       19573.689      132581.11      40.471617      40.471617      80.943234          16040 
     52000   3558.6791      895141.03      323.76605      894245.29      896477.36      894700.44     -939.09307      3418.7131      2228.4302      7377.8659      11852.655      19230.521      132818.02      40.495708      40.495708      80.991416          16040 
     53000   3609.1514      906218.33      331.38153      907256.54      906507.71      904890.73     -3044.8813      1333.44       -91.217988      7482.5052      12103.258      19585.763      132558.15      40.46928       40.46928       80.93856           16040 
     54000   3576.9368      898690.37      338.99269      899762.28      899880.27      896428.56      2823.1324      403.85125     -2130.7586      7415.7177      11933.717      19349.435      132794.71      40.49334       40.49334       80.98668           16040 
     55000   3590.3401      900848.32      346.60233      902366.62      901783.73      898394.61      1290.0537     -4391.0843      6533.246       7443.5055      12084.701      19528.206      132673.7       40.481036      40.481036      80.962072          16040 
     56000   3604.7308      894804.99      354.2116       893879.54      896537.93      893997.51     -4031.7257      2530.0173     -8540.7153      7473.3404      11852.728      19326.068      132866.76      40.500661      40.500661      81.001322          16040 
     57000   3611.75        905007.97      361.8287       905389.74      904444.38      905189.81      3450.9047      3990.6286      1006.0609      7487.8926      12047.445      19535.338      132584.58      40.471969      40.471969      80.943938          16040 
     58000   3595.284       892479.07      369.44275      891931.4       893389.14      892116.68      554.18933      210.42867     -1273.5186      7453.7552      11853.673      19307.428      132879.88      40.501994      40.501994      81.003989          16040 
     59000   3576.5117      907087.45      377.05518      906712.88      906363.87      908185.6      -1535.4867     -3098.0673      2374.0302      7414.8364      12094.949      19509.785      132514.68      40.464856      40.464856      80.929713          16040 
     60000   3605.5784      900100.44      384.67324      901728.04      901044.21      897529.08      3392.0039     -1562.7273     -1184.0167      7475.0976      11854.112      19329.21       132714.17      40.485151      40.485151      80.970302          16040 
     61000   3636.5898      898302.62      392.28208      898791.82      897929.31      898186.73     -1240.9368      92.464335      4712.0766      7539.3905      11915.666      19455.057      132769.43      40.49077       40.49077       80.981539          16040 
     62000   3594.678       902366.3       399.89722      900788.03      905599.78      900711.08      836.9997       3077.6215     -878.50989      7452.4989      11942.128      19394.627      132693.81      40.483081      40.483081      80.966163          16040 
     63000   3651.7528      895146.06      407.51401      895527.33      894706.12      895204.72      379.39628     -506.26257      956.01349      7570.8265      11931.669      19502.495      132848.45      40.498801      40.498801      80.997602          16040 
     64000   3601.9928      902164.27      415.1287       898811.02      903422.15      904259.62     -3775.442       2110.2331      170.69567      7467.664       11941.095      19408.759      132633.66      40.476963      40.476963      80.953927          16040 
     65000   3575.6323      897559.73      422.74312      899844.28      896480.59      896354.32      1899.9912     -2380.9803     -1121.1418      7413.0132      11806.219      19219.232      132777.62      40.491602      40.491602      80.983204          16040 
     66000   3619.2628      901031.19      430.36124      899820.98      902452.8       900819.78      1308.7108      4287.1122     -2884.8996      7503.4682      11908.965      19412.433      132705.69      40.484289      40.484289      80.968577          16040 
     67000   3596.782       900216.12      437.96973      900414.68      902182.49      898051.19     -991.48446     -2783.1416     -439.08133      7456.861       11984.744      19441.605      132711.12      40.484841      40.484841      80.969682          16040 
     68000   3637.7699      900616.75      445.58303      900283.25      901170.33      900396.68      4515.6902     -94.683985     -4836.3255      7541.8371      11857.609      19399.446      132691.49      40.482845      40.482845      80.96569           16040 
     69000   3604.891       897752.56      453.19607      898538.05      900712.61      894007.03      1925.2173     -144.37302      5048.4865      7473.6726      11934.211      19407.884      132862.14      40.500192      40.500192      81.000384          16040 
     70000   3594.4567      901684.97      460.81057      900965.86      905051.49      899037.56     -286.98281      4336.7627     -962.93237      7452.04        11936.506      19388.546      132689.24      40.482616      40.482616      80.965231          16040 
     71000   3593.4079      897306.84      468.42958      896320.5       897819.49      897780.52      200.68088      3807.5704      2554.0619      7449.8656      11914.204      19364.07       132833.24      40.497255      40.497255      80.99451           16040 
     72000   3607.057       899841.35      476.04101      900013.58      901387.89      898122.58     -1542.6547      441.5982      -1958.5392      7478.1631      11900.195      19378.358      132751.35      40.488931      40.488931      80.977863          16040 
     73000   3586.9272      896962.04      483.64928      900256.28      895515.94      895113.91     -4122.1126      4756.5193      2846.6286      7436.4299      11932.06       19368.49       132832.63      40.497194      40.497194      80.994387          16040 
     74000   3639.5121      907041.06      491.26106      907275.09      906288.14      907559.97     -218.30965      908.56944     -3531.7187      7545.4492      12056.049      19601.499      132501.9       40.463555      40.463555      80.92711           16040 
     75000   3588.2596      889790.95      498.86968      891310.64      888328.14      889734.08     -63.63086       1398.8506     -4410.9035      7439.1923      11809.949      19249.141      132978.31      40.511993      40.511993      81.023986          16040 
     76000   3592.0086      903462.73      506.48415      904849.39      903620.44      901918.37      2672.483       3591.2697     -1241.6665      7446.9647      11978.901      19425.866      132661.02      40.479746      40.479746      80.959492          16040 
     77000   3668.4471      898250.35      514.09922      897590.75      898353.74      898806.56     -1107.6135      2244.138       3604.2837      7605.4371      11936.518      19541.956      132841.94      40.498139      40.498139      80.996279          16040 
     78000   3568.6034      902849.19      521.70484      902049.05      903312.94      903185.58      1251.3516     -402.40532      559.03658      7398.441       11950.562      19349.003      132656.59      40.479295      40.479295      80.958591          16040 
     79000   3622.0319      899603.56      529.31464      900195.29      899211.6       899403.78      834.61565      4032.1007     -832.90762      7509.209       11892.289      19401.498      132721.24      40.48587       40.48587       80.97174           16040 
     80000   3601.6824      898392.59      536.92482      901487.39      896407.08      897283.3       4301.0168     -41.705228     -411.86662      7467.0205      11985.153      19452.174      132769.2       40.490747      40.490747      80.981493          16040 
     81000   3582.0578      897087.17      544.53575      900447.29      895453.13      895361.08      3279.1829      3645.5506     -619.65635      7426.3345      11891.097      19317.431      132829.71      40.496897      40.496897      80.993794          16040 
     82000   3640.6998      905525.34      552.15476      908426.81      905496.77      902652.43      2167.4985      2965.0335     -2137.8264      7547.9113      11976.649      19524.56       132597.31      40.473265      40.473265      80.94653           16040 
     83000   3597.3595      897412.56      559.76797      897987.1       897679.8       896570.79      674.36947     -442.51072     -1489.8831      7458.0582      11806.389      19264.447      132779.85      40.491829      40.491829      80.983658          16040 
     84000   3600.8768      900992.62      567.37682      900774.77      903450.18      898752.92      1846.4668     -761.45015     -1431.7131      7465.3503      11938.026      19403.376      132690.29      40.482723      40.482723      80.965445          16040 
     85000   3619.2632      901502.27      574.98815      901857.26      901787.03      900862.51      3577.1955      281.06089      3692.5558      7503.469       12023.079      19526.548      132712.13      40.484944      40.484944      80.969888          16040 
     86000   3577.4033      896914.09      582.59704      897693.32      898257.94      894790.99     -53.057342     -582.42177      6160.8143      7416.6849      11910.147      19326.832      132803.03      40.494185      40.494185      80.988369          16040 
     87000   3612.3966      902106.82      590.20789      900758.04      902939.71      902622.72      1392.3827      432.75563      2110.5526      7489.2332      11970.149      19459.383      132630.85      40.476677      40.476677      80.953354          16040 
     88000   3560.1701      897692.74      597.82673      898109.27      897189.95      897778.99      318.40583     -1287.6444     -545.73977      7380.957       11867.652      19248.609      132816.78      40.495583      40.495583      80.991165          16040 
     89000   3635.1378      902522.83      605.43822      904202.86      901326.98      902038.64      385.41023      2834.6188      747.92891      7536.3803      11903.561      19439.941      132689.58      40.48265       40.48265       80.965301          16040 
     90000   3624.3505      902464.25      613.04894      900281.25      902797.39      904314.1      -2451.3101      377.27201      1344.4719      7514.016       11894.376      19408.392      132632.61      40.476857      40.476857      80.953713          16040 
     91000   3597.3661      899003.41      620.65657      899747.34      898142.8       899120.08      5420.8423     -2153.0085     -2692.7541      7458.0719      11963.808      19421.88       132750.05      40.488799      40.488799      80.977599          16040 
     92000   3556.6594      902323.05      628.2634       901545.13      901582.96      903841.06      1530.5884     -1379.5153      848.41501      7373.6786      11938.18       19311.859      132657.38      40.479375      40.479375      80.958751          16040 
     93000   3575.5031      898147.58      635.8687       897294.14      897514.68      899633.91     -2370.5122     -1413.107      -3.1480117      7412.7455      11956.985      19369.73       132765.19      40.490338      40.490338      80.980676          16040 
     94000   3605.0385      900968.31      643.47765      902718.24      898963.3       901223.38     -2260.0138      578.83361      5102.1806      7473.9783      11898.304      19372.282      132741.14      40.487894      40.487894      80.975787          16040 
     95000   3604.8213      896447.64      651.08202      897464.3       894616.22      897262.41     -1241.9267     -2462.7124     -716.29904      7473.528       11872.277      19345.805      132830.47      40.496974      40.496974      80.993948          16040 
     96000   3565.304       906178.43      658.68937      907054.75      907361.73      904118.8       2584.0688     -538.20503      1149.5127      7391.6007      11975.183      19366.784      132504.8       40.46385       40.46385       80.927701          16040 
     97000   3615.3333      894101.71      666.2934       893916.53      894010.76      894377.83     -5690.6007     -1870.5992      1970.3552      7495.3215      11829.368      19324.69       132892.8       40.503307      40.503307      81.006614          16040 
     98000   3636.3282      901875.48      673.90208      900599.31      902466.18      902560.95      4753.1274      2029.1488      1562.6386      7538.8483      12052.573      19591.421      132655.1       40.479144      40.479144      80.958289          16040 
     99000   3590.5385      898005.48      681.51201      898727.37      895797         899492.08     -350.95482      6360.0891      4677.1874      7443.9168      11870.817      19314.733      132772.3       40.491062      40.491062      80.982123          16040 
    100000   3589.7028      896121.56      689.1248       894218.2       897015.22      897131.26      4072.6552     -3811.6313     -5833.58        7442.1843      11807.691      19249.875      132797.26      40.493599      40.493599      80.987197          16040 
    101000   3588.9934      903886.02      696.73266      903639.15      902982.78      905036.13     -2189.8767     -2328.2281      1509.5605      7440.7136      12032.973      19473.686      132647.09      40.478329      40.478329      80.956658          16040 
    102000   3584.4331      894176.02      704.34507      895460.48      891252.48      895815.1      -3956.7534      2083.6422      2216.7067      7431.2591      11836.235      19267.494      132915.87      40.505651      40.505651      81.011301          16040 
    103000   3597.9721      908004.54      711.95157      906646.85      907973.5       909393.27      1276.8981      151.2759       1826.1879      7459.3282      12099.064      19558.393      132532.53      40.466673      40.466673      80.933346          16040 
    104000   3584.1148      897924.91      719.56155      899634.72      899311.53      894828.49      1855.5971     -392.61268      1294.7369      7430.5992      11905.376      19335.975      132843.43      40.498291      40.498291      80.996582          16040 
    105000   3590.4131      905181.79      727.17224      905620.94      903216.65      906707.79      1283.3812      2689.322       361.85481      7443.6569      11954.947      19398.604      132574.31      40.470924      40.470924      80.941849          16040 
    106000   3638.4721      893471.79      734.8468       893102.45      895409.64      891903.27      8135.9132     -1926.7813      3686.6625      7543.2929      11871.954      19415.247      132933.24      40.507415      40.507415      81.014831          16040 
    107000   3622.7591      906116         742.45651      907497.34      904147.73      906702.94      284.61217     -1475.7617      158.88561      7510.7167      11975.662      19486.379      132567.26      40.470207      40.470207      80.940414          16040 
    108000   3624.509       891432.12      750.06415      892260.75      890949.58      891086.03     -697.17899      1908.2159      2918.4214      7514.3447      11800.432      19314.777      132948.2       40.508935      40.508935      81.01787           16040 
    109000   3561.2642      905972.34      757.66864      905559.01      905379.95      906978.07      1181.6271      1573.7591     -7084.8579      7383.2253      12070.376      19453.602      132595.51      40.473082      40.473082      80.946164          16040 
    110000   3590.3723      898703.22      765.2775       899443.7       899225.18      897440.8      -193.4877       700.42715     -2154.4282      7443.5722      11916.967      19360.54       132820.46      40.495957      40.495957      80.991914          16040 
    111000   3575.3258      901424.98      772.8839       900107.64      901665.08      902502.21      947.69876     -750.33165     -3475.8603      7412.3778      11910.611      19322.989      132693.25      40.483024      40.483024      80.966048          16040 
    112000   3610.8243      900220.52      780.49021      900969.73      899928.99      899762.84     -41.517315     -3840.8319     -84.999796      7485.9734      11885.351      19371.324      132724.31      40.486182      40.486182      80.972364          16040 
    113000   3596.7447      896399.88      788.09567      893889.14      896609.52      898700.99     -2243.7651      1279.6082     -2163.943       7456.7836      11953.301      19410.084      132804.78      40.494363      40.494363      80.988726          16040 
    114000   3642.1527      900951.01      795.69875      901493.08      901494.82      899865.14     -1455.9396      3646.7959     -2123.653       7550.9236      11866.048      19416.972      132741.67      40.487947      40.487947      80.975894          16040 
    115000   3601.5388      891632.87      803.3011       889673.6       893083.41      892141.61     -839.13254     -259.48505     -4026.9699      7466.7227      11761.686      19228.408      132997.9       40.513981      40.513981      81.027963          16040 
    116000   3611.1644      902401.51      810.90276      901326.64      901901.82      903976.06      2495.703       668.94139     -3430.2657      7486.6785      11914.773      19401.451      132666.64      40.480318      40.480318      80.960636          16040 
    117000   3576.2924      897746.46      818.50363      896999.24      898971.84      897268.29      3410.5061     -915.07265     -620.12747      7414.3818      11855.564      19269.946      132800         40.493877      40.493877      80.987753          16040 
    118000   3602.5183      903685.11      826.10746      901437.66      904930.5       904687.16     -661.08991      1606.7931     -274.55923      7468.7535      12071.864      19540.618      132701.4       40.483853      40.483853      80.967705          16040 
    119000   3583.1197      896498.46      833.71203      893899.51      896833.47      898762.39      2499.4046     -297.94823      761.35558      7428.5361      11831.917      19260.453      132822.16      40.496129      40.496129      80.992258          16040 
    120000   3611.8873      900027.74      841.31376      900267.84      900545.48      899269.9       3559.1918     -3860.6778      3617.1759      7488.1772      11916.755      19404.932      132721.27      40.485873      40.485873      80.971747          16040 
    121000   3580.6714      898513.33      848.91634      898946.89      897912.34      898680.77     -1624.4892     -3597.5052      2548.58        7423.4604      11922.153      19345.614      132747.37      40.488527      40.488527      80.977055          16040 
    122000   3627.3786      900570.27      856.52257      899909.06      900149.51      901652.24      4103.4707     -3093.5235      1674.5234      7520.2939      11911.701      19431.995      132670.45      40.480705      40.480705      80.96141           16040 
    123000   3545.1382      897030.47      864.12693      894575.3       898036.89      898479.21      139.38312      2760.8799      2452.3056      7349.7928      11880.329      19230.122      132724.81      40.486233      40.486233      80.972466          16040 
    124000   3618.7808      899046.15      871.72789      898760.36      898598.85      899779.25     -1555.8132      900.09368     -3945.895       7502.4689      11924.652      19427.121      132730.89      40.486851      40.486851      80.973702          16040 
    125000   3636.7461      899591.88      879.33037      901164.64      897780.49      899830.5       261.16727     -3869.8604      119.55253      7539.7147      11943.503      19483.217      132781.88      40.492035      40.492035      80.98407           16040 
    126000   3609.7903      898452.09      886.93583      900407.78      896910.48      898038.01      2837.3249      3617.6659      262.65931      7483.8298      11904.911      19388.741      132728.73      40.486632      40.486632      80.973263          16040 
    127000   3591.59        899225.14      894.54002      900761.5       900532.52      896381.4      -667.81019      1103.0967      4255.3692      7446.0968      11916.449      19362.545      132738.09      40.487584      40.487584      80.975167          16040 
    128000   3646.4313      902530.31      902.14004      902904.7       902313.93      902372.31     -2051.6312      715.40151     -3359.4772      7559.794       11923.224      19483.018      132627.17      40.476302      40.476302      80.952605          16040 
    129000   3613.6391      896458.53      909.74211      896473.77      896040.53      896861.28      1384.5317      2578.2831     -1539.6033      7491.8091      11865.965      19357.774      132817.58      40.495664      40.495664      80.991329          16040 
    130000   3613.2623      903080.72      917.34323      903858.16      900874.6       904509.4      -1714.1306      2944.3299      1702.0168      7491.0279      12005.109      19496.137      132581.73      40.471679      40.471679      80.943359          16040 
    131000   3570.8036      899185.22      924.94066      901903.12      897619.22      898033.32     -4255.1043     -1040.0626      1856.9676      7403.0025      11907.17       19310.172      132749.89      40.488783      40.488783      80.977566          16040 
    132000   3648.6777      898098.72      932.53797      898159.58      899072.25      897064.32     -1370.5297     -117.90597      1176.6591      7564.4512      11943.066      19507.517      132746.17      40.488405      40.488405      80.97681           16040 
    133000   3585.3397      900637.74      940.13773      901243.78      901266.84      899402.61      116.62635      561.72616      2666.4826      7433.1387      11931.987      19365.125      132728.8       40.486639      40.486639      80.973279          16040 
    134000   3653.5013      901834.96      947.73825      900685.03      902410.89      902408.95     -20.914096      4521.6935      2594.9213      7574.4516      11964.67       19539.122      132648.82      40.478505      40.478505      80.95701           16040 
    135000   3587.7594      899979.52      955.33969      900563.75      900339.66      899035.15     -5786.747       251.1712      -1029.5272      7438.1552      11876.885      19315.04       132753.98      40.489199      40.489199      80.978399          16040 
    136000   3649.3061      902479.39      962.94213      901680.25      902967.25      902790.67     -2913.6818      837.22797     -5218.7962      7565.754       11859.561      19425.315      132687.83      40.482473      40.482473      80.964946          16040 
    137000   3558.2243      896630.07      970.5399       895121.33      897822.58      896946.3       2256.5751     -13.865123     -308.35601      7376.9228      11960.711      19337.634      132784.9       40.492342      40.492342      80.984684          16040 
    138000   3592.2818      901309.84      978.13808      901325.83      900480.3       902123.39     -731.84363      5023.2954     -3898.4137      7447.5311      11951.253      19398.784      132678.58      40.481532      40.481532      80.963065          16040 
    139000   3589.7081      899659.33      985.73787      899687.92      898430.48      900859.57     -4128.5845      1603.1603      5359.2221      7442.1953      12027.178      19469.373      132752.86      40.489085      40.489085      80.97817           16040 
    140000   3598.8729      900532.9       993.34016      899681.85      901741.41      900175.44      356.29284     -1953.6707     -802.91317      7461.1958      11868.267      19329.462      132753.28      40.489128      40.489128      80.978256          16040 
    141000   3605.9357      897895.87      1000.9426      899300.39      896034.05      898353.17      2823.6325     -6346.9635      3517.3618      7475.8383      11914.725      19390.563      132822.76      40.496191      40.496191      80.992381          16040 
    142000   3613.1604      903422.85      1008.5424      902912.13      904258.08      903098.35     -4982.5143      1667.3996      2616.3976      7490.8166      11946.303      19437.12       132637.84      40.477388      40.477388      80.954776          16040 
    143000   3614.8118      895533.16      1016.1438      892875.11      894941.32      898783.06     -1450.8252      3902.4367     -637.70587      7494.2403      11836.401      19330.641      132845.87      40.498539      40.498539      80.997077          16040 
    144000   3587.6273      902660.68      1023.7434      903941.72      901204.51      902835.8       1977.0356     -2844.7157     -2539.9146      7437.8814      11863.023      19300.904      132653         40.478931      40.478931      80.957861          16040 
    145000   3622.3486      899539.86      1031.3422      901691.33      897407.97      899520.29      934.51036      2469.2575     -955.75719      7509.8656      11766.77       19276.635      132762.07      40.490021      40.490021      80.980043          16040 
    146000   3643.7971      901173.04      1038.9452      900598.26      901384.69      901536.16     -1117.5514     -445.08927     -743.72178      7554.3329      11976.238      19530.571      132727.84      40.486541      40.486541      80.973082          16040 
    147000   3591.2811      893846.19      1046.548       894623.38      892931.51      893983.68      520.20738      1215.9081      2097.1493      7445.4564      11864.581      19310.037      132869.55      40.500945      40.500945      81.00189           16040 
    148000   3601.1082      902726.34      1054.149       903736.73      902123.63      902318.66      3634.4707      747.66086     -583.6349       7465.8301      11892.477      19358.308      132707.67      40.48449       40.48449       80.968981          16040 
    149000   3619.5027      898193.73      1061.7478      898637.07      896593.27      899350.86     -117.4436       4896.1217      3548.5436      7503.9656      11849.494      19353.459      132760.9       40.489903      40.489903      80.979805          16040 
    150000   3601.2785      901715         1069.3524      900604.49      903629.76      900910.76     -2241.4248     -790.83011      975.47567      7466.1831      11889.398      19355.581      132675.25      40.481193      40.481193      80.962386          16040 
    151000   3620.9647      901060.49      1076.9568      901023.65      901673.28      900484.54      1741.748       2759.4469     -1195.8887      7506.9965      11875.048      19382.044      132690.07      40.4827        40.4827        80.965401          16040 
    152000   3602.8209      900172.82      1084.5633      900642.86      901704.06      898171.55     -3515.1898     -3594.1528      1785.7357      7469.3807      11803.498      19272.879      132652.82      40.478912      40.478912      80.957823          16040 
    153000   3576.0967      899758.73      1092.1645      899281.36      897914.42      902080.42     -2068.2128     -2727.435      -2095.4194      7413.9761      11964.097      19378.073      132636.45      40.477247      40.477247      80.954494          16040 
    154000   3635.4014      902463.86      1099.7676      901740.58      903707.68      901943.31     -3390.184       2750.85       -1549.8635      7536.9267      11935.577      19472.503      132723.66      40.486116      40.486116      80.972233          16040 
    155000   3578.1504      898188.68      1107.3704      897464.05      900508.15      896593.83     -7129.1906      752.75773      3599.7789      7418.2338      11760.26       19178.493      132806.08      40.494495      40.494495      80.98899           16040 
    156000   3611.7848      905761.27      1114.9743      906422.55      904027.33      906833.92     -580.96902      5093.3679     -4215.7254      7487.9648      11993.935      19481.9        132560.05      40.469473      40.469473      80.938947          16040 
    157000   3655.9159      893957.82      1122.5749      895289.75      894682.5       891901.22      1223.8141     -981.51664     -1953.7121      7579.4574      11807.755      19387.213      132970.4       40.511189      40.511189      81.022379          16040 
    158000   3605.5965      904200.1       1130.1775      905249.03      903691.9       903659.37      3076.5842     -1524.5204      2891.5031      7475.1351      11868.811      19343.946      132624.03      40.475984      40.475984      80.951967          16040 
    159000   3622.7188      895386.2       1137.7791      893209.65      894640.2       898308.74     -784.40168      179.90755     -2843.2617      7510.6331      11740.435      19251.068      132844.82      40.498432      40.498432      80.996863          16040 
    160000   3604.2097      904387.71      1145.3788      905179.84      904812.83      903170.47      1690.3318      2789.8379     -1952.3421      7472.26        11840.548      19312.808      132612.73      40.474834      40.474834      80.949668          16040 
    161000   3595.1358      888629.24      1152.9826      888977.08      891880.86      885029.78      5539.6683      5039.2133     -1770.2261      7453.448       11802.673      19256.121      133014.37      40.515654      40.515654      81.031309          16040 
    162000   3623.8194      909435.76      1160.5858      910076.26      908118.89      910112.13      1772.5485     -3408.2746      417.42052      7512.9149      12067.615      19580.53       132537.68      40.467197      40.467197      80.934394          16040 
    163000   3585.9707      897965.39      1168.1885      901365.11      898242.44      894288.62     -2229.5063     -1853.9088      1023.1941      7434.4469      11837.581      19272.028      132803.55      40.494238      40.494238      80.988476          16040 
    164000   3605.788       903706.95      1175.7869      904232.96      903072.98      903814.9       1613.2238      15.787359      3931.77        7475.5323      11804.796      19280.328      132662.36      40.479883      40.479883      80.959766          16040 
    165000   3610.996       899345.17      1183.388       903812.47      895610.14      898612.89      346.94604     -1053.4581     -104.09658      7486.3293      11803.378      19289.707      132806.51      40.494539      40.494539      80.989077          16040 
    166000   3553.0949      900046.58      1190.9948      899904.55      899861.6       900373.58     -2908.7567     -180.54082     -419.61364      7366.2887      11854.684      19220.973      132702.52      40.483967      40.483967      80.967934          16040 
    167000   3619.6925      901815.41      1198.6047      901861.34      900550.37      903034.53      2268.517       4342.7057     -2318.0895      7504.3591      11893.221      19397.58       132655.81      40.479216      40.479216      80.958432          16040 
    168000   3571.8623      890840.09      1206.2129      892661.48      890320.54      889538.23      1414.535       1714.0181      2136.9108      7405.1973      11670.68       19075.878      132947.57      40.508871      40.508871      81.017741          16040 
    169000   3598.3077      909064.35      1213.8189      909911.2       908606.4       908675.45      4112.2446     -1065.6084     -182.19089      7460.024       12011.606      19471.63       132523.82      40.465786      40.465786      80.931572          16040 
    170000   3569.1622      893917.34      1221.423       895140.76      891221.11      895390.15     -1502.5018     -2765.6956      326.99775      7399.5994      11739.371      19138.97       132851.86      40.499148      40.499148      80.998295          16040 
    171000   3606.3511      901798.66      1229.029       903984.8       900334.8       901076.39     -2220.2181     -2747.2665     -2723.1926      7476.6995      11934.161      19410.861      132636.35      40.477236      40.477236      80.954473          16040 
    172000   3584.845       899530.52      1236.6398      900421.57      898708.71      899461.27      1513.6106      1337.2288     -721.9905       7432.1132      11825.128      19257.241      132727.87      40.486544      40.486544      80.973089          16040 
    173000   3601.3275      901370.41      1244.2511      902773.04      899975.84      901362.36      5045.238       1716.8583     -3655.4457      7466.2846      11935.654      19401.939      132662.15      40.479861      40.479861      80.959721          16040 
    174000   3588.5682      899058.16      1251.8601      898707.66      897815.6       900651.24      975.63461      1892.5997      246.79825      7439.832       11802.938      19242.77       132782.72      40.492121      40.492121      80.984241          16040 
    175000   3632.2727      904506.25      1259.4638      906101.23      903093.26      904324.25      2084.2106      1807.9406     -2839.2328      7530.4404      11914.7        19445.14       132667.68      40.480423      40.480423      80.960847          16040 
    176000   3560.1256      895445.3       1267.0698      896607.84      893292.03      896436.02      436.23283     -763.32095     -113.68843      7380.8646      11841.529      19222.394      132812.69      40.495167      40.495167      80.990335          16040 
    177000   3606.6883      901956.87      1274.682       903300.01      901181.14      901389.45     -740.80223     -2732.6056      179.53257      7477.3986      11889.952      19367.351      132702.59      40.483973      40.483973      80.967947          16040 
    178000   3563.3834      900196.51      1282.2969      902106.74      900915.27      897567.53      86.620516      1657.5781      1103.0466      7387.6189      11876.098      19263.717      132674.56      40.481123      40.481123      80.962245          16040 
    179000   3622.5008      897769.93      1289.9101      898728.4       893799.32      900782.06     -1416.7226     -96.240028     -2330.8143      7510.1812      11833.856      19344.037      132818.38      40.495745      40.495745      80.99149           16040 
    180000   3634.3026      904721.61      1297.5199      902806.37      905374.75      905983.7      -4142.8115      1540.8933      3616.3674      7534.6487      11996.364      19531.013      132617.68      40.475337      40.475337      80.950675          16040 
    181000   3602.8969      894817.9       1305.1291      895681.84      892249.1       896522.76     -2168.968       1746.2252      294.28673      7469.5384      11741.34       19210.878      132882.88      40.502299      40.502299      81.004598          16040 
    182000   3647.4634      903574.42      1312.7362      902096.39      906105.17      902521.7       1550.8188      87.2384        3202.8448      7561.9338      11882.435      19444.368      132648         40.478421      40.478421      80.956843          16040 
    183000   3588.5454      896414.68      1320.346       893406.93      897164.08      898673.03     -5383.25        1433.3088     -3032.1184      7439.7847      11708.07       19147.855      132876.18      40.501619      40.501619      81.003238          16040 
    184000   3617.2393      906510.72      1327.9557      907396.87      906935.57      905199.72      2363.2312     -118.71039      657.93754      7499.273       11867.786      19367.059      132635.14      40.477114      40.477114      80.954228          16040 
    185000   3597.8703      894759.08      1335.5606      896112.93      892884.3       895280.02     -3417.5295      1735.5024      1680.3158      7459.1171      11766.216      19225.333      132867.68      40.500755      40.500755      81.001511          16040 
    186000   3640.8504      901397.11      1343.1626      903228.88      900049.4       900913.06      2269.5666     -5106.4092     -3128.4267      7548.2238      11853.919      19402.143      132690.3       40.482724      40.482724      80.965449          16040 
    187000   3548.4653      897968.57      1350.7658      896936.83      898863.97      898104.92      851.27219     -396.58474     -2871.8883      7356.6906      11852.163      19208.853      132824.24      40.496341      40.496341      80.992682          16040 
    188000   3596.7882      903232.13      1358.3785      902178.59      903554.83      903962.96     -494.00848     -1153.5503     -2454.278       7456.8738      11967.012      19423.886      132656.77      40.479314      40.479314      80.958627          16040 
    189000   3589.7786      898788.36      1365.9921      895175.04      902439.31      898750.72     -5766.0431      2154.6648     -1488.8935      7442.3415      11754.732      19197.074      132789.13      40.492772      40.492772      80.985544          16040 
    190000   3573.8301      897612.15      1373.6038      898535.72      898297.32      896003.42      3945.5902      7605.6612     -3200.2762      7409.277       11894.392      19303.669      132776.41      40.491479      40.491479      80.982958          16040 
    191000   3533.804       898889.56      1381.2143      899401.58      896631.6       900635.5      -1941.0451      2596.7578      2750.5964      7326.2946      11981.654      19307.949      132730.18      40.486779      40.486779      80.973559          16040 
    192000   3576.4467      903316.97      1388.8233      900929.68      903928.97      905092.26     -1828.8112     -3695.3805      3415.2963      7414.7016      11895.079      19309.781      132643.08      40.477922      40.477922      80.955843          16040 
    193000   3607.8712      894675.82      1396.4325      894625.32      894820.99      894581.15      1951.7783      861.76964     -2821.6214      7479.8511      11841.097      19320.948      132889.79      40.503001      40.503001      81.006003          16040 
    194000   3588.3446      904133.96      1404.0437      906620.69      901505.7       904275.48      2976.116       198.49264      4119.4964      7439.3684      11952.276      19391.645      132620.8       40.475655      40.475655      80.951309          16040 
    195000   3608.1317      894520.89      1411.6601      898344.07      893662.15      891556.45     -4447.2431      2752.4325      67.494132      7480.3911      11781.766      19262.157      132877.75      40.501778      40.501778      81.003557          16040 
    196000   3651.6373      903044.49      1419.2733      903388.99      903562.92      902181.56      5796.9814     -786.07974     -867.49861      7570.5871      11808.581      19379.168      132645.52      40.478169      40.478169      80.956338          16040 
    197000   3564.9717      895802.99      1426.8836      897011.63      896749.56      893647.78      1014.8859      533.87043     -1963.9054      7390.9118      11738.469      19129.381      132798.21      40.493695      40.493695      80.98739           16040 
    198000   3643.2496      905987.3       1434.495       906626.75      905264.21      906070.95     -4467.3575     -1090.9943      903.19771      7553.1978      11894.756      19447.954      132550.64      40.468516      40.468516      80.937032          16040 
    199000   3596.3181      894156.66      1442.1072      892932.67      893419.44      896117.88     -3563.7162      2290.2644      1788.0111      7455.8992      11723.287      19179.187      132892.73      40.5033        40.5033        81.006601          16040 
    200000   3633.1483      906961.71      1449.7266      907943.56      907079.63      905861.94      858.33139     -3552.4183      4704.642       7532.2557      11932.967      19465.223      132526.1       40.466018      40.466018      80.932037          16040 
    201000   3601.0355      894467.86      1457.3377      893774.84      893709.25      895919.51      913.0227      -2058.1518     -2183.8723      7465.6793      11828.352      19294.031      132888.71      40.502891      40.502891      81.005783          16040 
    202000   3608.304       905824.58      1464.9481      905004.4       907674.47      904794.86      1530.4032      1226.3986     -2279.3191      7480.7483      11908.564      19389.312      132600.39      40.473578      40.473578      80.947156          16040 
    203000   3627.2869      895531.67      1472.5606      893433.78      897180.75      895980.48     -5983.2211     -230.44814     -1102.658       7520.1038      11733.717      19253.821      132910.63      40.505119      40.505119      81.010238          16040 
    204000   3631.565       902700.01      1480.1737      902340.61      903614.61      902144.82      3024.304      -1061.8574     -5478.7885      7528.9732      11878.552      19407.525      132719.72      40.485716      40.485716      80.971432          16040 
    205000   3605.431       898424.79      1487.7873      896869.47      898910.92      899493.98     -4366.0073      5006.6688      3385.4736      7474.7921      11834.128      19308.92       132793.32      40.493198      40.493198      80.986396          16040 
    206000   3589.6805      901541.87      1495.4         904509.17      901124.13      898992.3      -593.06659      4469.4078     -1071.2447      7442.1381      11938.698      19380.836      132687.41      40.48243       40.48243       80.96486           16040 
    207000   3581.1392      896141.51      1503.0138      896298.64      895300.34      896825.56     -1789.3819     -2128.2441      3150.7534      7424.4301      11820.108      19244.539      132863.64      40.500345      40.500345      81.00069           16040 
    208000   3601.5487      900162.94      1510.6254      898990.3       897431.21      904067.29     -261.66277     -5131.9065     -4316.3368      7466.7433      11823.999      19290.743      132719.99      40.485743      40.485743      80.971485          16040 
    209000   3535.5663      896039.88      1518.2394      894688         896284.42      897147.23      2923.7309     -726.97074     -1227.5718      7329.9483      11839.037      19168.985      132776.18      40.491456      40.491456      80.982911          16040 
    210000   3618.9472      903311.25      1525.849       903800.28      904898.87      901234.6       2431.1632      2645.552      -1407.419       7502.8139      11899.989      19402.802      132647.88      40.478409      40.478409      80.956819          16040 
    211000   3584.5439      896141.98      1533.4617      896402.74      896997.7       895025.49      1507.688       4561.9767     -1141.0024      7431.4888      11784.401      19215.89       132779.15      40.491757      40.491757      80.983515          16040 
    212000   3641.2566      904649.4       1541.0752      903581.37      906147.89      904218.93     -4348.6559     -1579.0139     -2157.0993      7549.0658      11997.23       19546.296      132681.36      40.481814      40.481814      80.963629          16040 
    213000   3598.0085      896501.51      1548.6872      897692.58      896510.42      895301.53      419.16787     -4703.9524      4137.0823      7459.4036      11747.556      19206.96       132837.57      40.497695      40.497695      80.99539           16040 
    214000   3577.0219      905342.84      1556.3015      906366.85      905468.54      904193.14      5478.0736      3080.8582     -1170.8916      7415.8942      11908.035      19323.929      132610.65      40.474623      40.474623      80.949245          16040 
    215000   3607.6308      886234.81      1563.9125      888732.18      884988.92      884983.33     -133.0215       3850.6061     -2092.8972      7479.3528      11752.689      19232.042      133081.87      40.522507      40.522507      81.045014          16040 
    216000   3583.0233      908212.33      1571.5235      906469.9       910306.66      907860.45      5092.0198      3433.6167     -1639.3778      7428.3364      12001.334      19429.671      132514.38      40.464825      40.464825      80.929651          16040 
    217000   3568.4968      897752.38      1579.137       897462.81      899428.91      896365.43     -519.05059     -5022.8688     -1023.4783      7398.2199      11852.757      19250.976      132859.42      40.499915      40.499915      80.999831          16040 
    218000   3611.5539      903942.15      1586.747       903438.26      905876.44      902511.74      2106.2832     -1599.7349     -2368.5346      7487.4861      11761.961      19249.447      132686.18      40.482305      40.482305      80.964611          16040 
    219000   3621.003       900551.06      1594.3562      901067.66      900148         900437.53      2287.0006      727.18051     -334.12204      7507.0759      11864.87       19371.946      132732.6       40.487025      40.487025      80.974051          16040 
    220000   3595.8156      895738.4       1601.9688      896003.1       894588.4       896623.69     -2660.2306     -1522.8544      2858.4132      7454.8574      11768.585      19223.443      132822.57      40.496171      40.496171      80.992343          16040 
    221000   3639.9954      907415.7       1609.5803      907233.95      908032.38      906980.75     -6551.567      -130.4168      -1564.223       7546.4512      11911.285      19457.736      132563.97      40.469872      40.469872      80.939744          16040 
    222000   3570.8308      891688.18      1617.1904      890504.51      889803.82      894756.23      3476.3649     -6581.6744      3518.9513      7403.0588      11767.116      19170.175      132972.19      40.511371      40.511371      81.022742          16040 
    223000   3612.6338      903882.06      1624.8025      905651.2       901023.17      904971.81     -528.94988      2456.1841     -1094.267       7489.7248      11955.388      19445.113      132629.67      40.476558      40.476558      80.953115          16040 
    224000   3588.463       896828.54      1632.4105      897144.59      897054.91      896286.11     -153.15269      1552.0062      3787.8456      7439.614       11838.892      19278.506      132839.3       40.497871      40.497871      80.995743          16040 
    225000   3658.8211      904662.27      1640.0218      904367.79      904526.66      905092.35     -950.9045      -712.74736     -938.25293      7585.4806      11951.374      19536.855      132678.29      40.481502      40.481502      80.963005          16040 
    226000   3607.2249      896698.12      1647.6353      896999.28      896178.66      896916.43      4315.7395      62.612822     -1139.0986      7478.5112      11797.057      19275.568      132855.78      40.499545      40.499545      80.999091          16040 
    227000   3574.9309      906387.55      1655.2447      906919.81      906047.88      906194.98      1262.4036      5436.5825      4748.9121      7411.5592      11854.306      19265.866      132584.17      40.471927      40.471927      80.943855          16040 
    228000   3612.1191      889994.58      1662.8591      888776.62      889447.72      891759.39     -3898.3335      27.137733     -3849.4215      7488.6579      11701.221      19189.879      132985.24      40.512696      40.512696      81.025393          16040 
    229000   3540.9402      904649.81      1670.4735      904667.82      904679.26      904602.35     -715.03043      1468.795      -246.48008      7341.0894      11984.099      19325.188      132588.52      40.472371      40.472371      80.944741          16040 
    230000   3595.941       898325.54      1678.082       899090.95      896814.82      899070.86     -4404.2546      4184.0894      2251.2325      7455.1174      11861.483      19316.6        132837.84      40.497723      40.497723      80.995446          16040 
    231000   3601.9793      906302.6       1685.6925      906338.05      905070.45      907499.3       2387.3934     -1306.6691      1199.4696      7467.6361      11910.695      19378.331      132621.57      40.475733      40.475733      80.951466          16040 
    232000   3563.2558      896928.72      1693.3047      899097.63      896540.41      895148.13     -3409.5493      675.58151     -651.08668      7387.3543      11735.777      19123.132      132824.26      40.496343      40.496343      80.992685          16040 
    233000   3623.354       907452.41      1700.9142      908468.28      905993.2       907895.74     -3860.2204      494.73816     -2231.1873      7511.9501      11921.53       19433.48       132545.73      40.468016      40.468016      80.936031          16040 
    234000   3552.7914      893808.69      1708.5272      894277.32      893577.17      893571.58      1295.546       436.53045      547.14523      7365.6595      11725.312      19090.971      132873.22      40.501318      40.501318      81.002636          16040 
    235000   3625.5918      902355.38      1716.1379      901559.18      904484.25      901022.73     -2248.5334     -1098.8848     -1767.5431      7516.5895      11806.41       19323          132707.5       40.484473      40.484473      80.968946          16040 
    236000   3582.7483      897613.58      1723.7509      897060.85      898494.4       897285.49      937.90126      250.87796     -365.56675      7427.7662      11771.511      19199.277      132787.9       40.492647      40.492647      80.985294          16040 
    237000   3605.2305      901700.55      1731.3629      901651.86      900666.72      902783.07     -1794.0934      1678.2195     -5173.9318      7474.3764      11850.583      19324.959      132700.73      40.483785      40.483785      80.96757           16040 
    238000   3561.676       894924.75      1738.9716      896703.42      894894.42      893176.43      822.09048      906.60272     -2803.9121      7384.0791      11720.209      19104.288      132898.82      40.503918      40.503918      81.007837          16040 
    239000   3579.4379      907492.61      1746.5787      908899.66      907278.48      906299.68      1067.2948      2692.1082     -1543.8411      7420.9031      11997.243      19418.147      132536.29      40.467056      40.467056      80.934112          16040 
    240000   3590.4982      892954.86      1754.1877      892699.64      891200.59      894964.34     -2330.4393      596.87216     -1960.349       7443.8334      11725.492      19169.326      132926.04      40.506684      40.506684      81.013368          16040 
    241000   3645.8208      904012.47      1761.797       904930.31      903296.67      903810.44      304.97385     -1615.4255     -535.07029      7558.5284      11880.548      19439.077      132664.86      40.480136      40.480136      80.960272          16040 
    242000   3596.5349      895928.5       1769.4064      898027.37      894471.83      895286.29      4005.0386      3260.0587      1623.6842      7456.3485      11757.05       19213.398      132814.73      40.495374      40.495374      80.990748          16040 
    243000   3618.1101      901982.13      1777.0139      902537.27      900642.24      902766.88     -3366.672      -3632.1868      4979.9918      7501.0784      11909.774      19410.853      132728.07      40.486565      40.486565      80.973129          16040 
    244000   3554.2946      899726.05      1784.6191      898971.05      898434.79      901772.32      1439.0951      4220.0391      896.1072       7368.7759      11854.475      19223.251      132773.15      40.491148      40.491148      80.982296          16040 
    245000   3628.817       902053.75      1792.2218      903077.6       899852.79      903230.86      6430.1028      1357.5637     -6499.6071      7523.2759      11865.412      19388.688      132782.37      40.492085      40.492085      80.984169          16040 
    246000   3590.027       896245.19      1799.8255      894493.3       898101.98      896140.28     -892.81906     -3985.8469      2411.9696      7442.8564      11715.708      19158.565      132838.09      40.497749      40.497749      80.995497          16040 
    247000   3600.4658      901383.98      1807.4353      900452.86      900636.22      903062.85     -1453.4035      5083.864       1262.5157      7464.4982      11896.691      19361.189      132707.65      40.484488      40.484488      80.968976          16040 
    248000   3587.2928      897507.08      1815.0492      897779.93      896571.94      898169.37      2806.4287      1304.9214      4269.3858      7437.1879      11796.29       19233.478      132774.7       40.491305      40.491305      80.982611          16040 
    249000   3640.8681      902581.86      1828.1601      901996.65      902189.46      903559.48      88.295626      1179.4722      64.593002      7548.2603      11890.781      19439.041      132683.47      40.482029      40.482029      80.964059          16040 
    250000   3585.6874      896925.23      1835.7748      895039.48      897005.25      898730.97     -286.06544     -670.76605     -2124.5606      7433.8596      11764.21       19198.07       132840.03      40.497945      40.497945      80.995891          16040 
    251000   3613.4876      905075.48      1843.3827      904933.31      905635.09      904658.02      2667.9169     -2512.0462      4199.9728      7491.4951      11929.079      19420.574      132649.02      40.478526      40.478526      80.957051          16040 
    252000   3592.8698      891549.89      1850.9923      891042.86      892577.96      891028.86      1360.1084      1775.9012      3146.7961      7448.75        11576.279      19025.029      132961.49      40.510284      40.510284      81.020568          16040 
    253000   3601.4639      903435.4       1858.6045      902509.98      903514.24      904281.98     -7804.6647      4041.5655      2900.1641      7466.5675      11843.212      19309.779      132615.16      40.475081      40.475081      80.950163          16040 
    254000   3618.4012      898725.73      1866.209       898747.65      899050.69      898378.86     -2791.626      -1534.915       1983.0211      7501.682       11854.046      19355.728      132746.67      40.488456      40.488456      80.976912          16040 
    255000   3577.2262      899899.64      1873.8146      902432.03      898927.79      898339.09     -4057.3715     -1874.2833     -235.93467      7416.3177      11781.303      19197.621      132754.21      40.489222      40.489222      80.978444          16040 
    256000   3620.6309      902785.96      1881.416       905656.68      902043.38      900657.82     -587.00952     -2257.855       1558.042       7506.3046      11866.735      19373.039      132698.74      40.483582      40.483582      80.967164          16040 
    257000   3579.7619      897993.46      1889.0238      897158.36      899398.47      897423.54     -4018.2287      963.0465      -517.85695      7421.5749      11698.886      19120.461      132726.19      40.486374      40.486374      80.972747          16040 
    258000   3582.6629      903092.43      1896.6349      901707.81      903441.66      904127.81     -2688.0219      633.19684     -881.78317      7427.5892      11960.179      19387.768      132595.6       40.473091      40.473091      80.946183          16040 
    259000   3598.6623      898235.54      1904.2393      898592.85      899874.67      896239.08     -1044.3286      2422.7992      112.86304      7460.7591      11858.461      19319.22       132777.87      40.491628      40.491628      80.983255          16040 
    260000   3603.152       899492.11      1911.8421      898873.67      899348.03      900254.63     -1392.4452      2966.4836      1240.4543      7470.0673      11815.027      19285.094      132768.04      40.490628      40.490628      80.981257          16040 
    261000   3559.7338      899733.81      1919.4462      898434.38      901158.97      899608.07      3030.9096     -1073.2794     -3429.8538      7380.0525      11836.881      19216.934      132748.6       40.488652      40.488652      80.977303          16040 
    262000   3576.3493      899475.53      1927.0493      898527.44      899647.64      900251.51      2034.9206      4639.5478      2360.4374      7414.4997      11899.462      19313.962      132768.77      40.490703      40.490703      80.981405          16040 
    263000   3583.4132      900049.27      1935.8079      903785.46      897400.35      898961.99     -1723.6702      2914.0008     -753.49117      7429.1446      11767.996      19197.14       132701.85      40.483899      40.483899      80.967797          16040 
    264000   3594.1301      900449.13      1943.4155      900614.17      899333.37      901399.85      1846.4411     -1605.0045     -4084.9445      7451.363       11810.099      19261.462      132713.06      40.485038      40.485038      80.970076          16040 
    265000   3654.5307      898021.88      1951.0189      900614.58      898822.49      894628.57     -493.97832     -801.29776      4048.053       7576.5857      11702.94       19279.525      132834.14      40.497347      40.497347      80.994694          16040 
    266000   3565.4533      902300.29      1958.6234      899230.21      906033.85      901636.8       1728.7025      347.70835     -3287.9105      7391.9101      11821.154      19213.065      132628.51      40.476439      40.476439      80.952879          16040 
    267000   3605.7385      898488.95      1966.2279      900117.93      898665.68      896683.23      2580.2768     -3836.207      -386.31563      7475.4296      11788.995      19264.424      132806.6       40.494548      40.494548      80.989096          16040 
    268000   3589.2698      900365.44      1973.8303      899963.58      899616.89      901515.86     -5521.2607     -4050.7405     -431.51151      7441.2865      11899.553      19340.839      132681.77      40.481856      40.481856      80.963712          16040 
    269000   3586.7973      896690.08      1982.7732      897599.6       896938.99      895531.64     -2879.8493      1063.5819     -989.21227      7436.1605      11745.16       19181.32       132780.18      40.491863      40.491863      80.983725          16040 
    270000   3589.411       901881.38      1990.3784      901788.07      902016.97      901839.1       2266.2251      2955.0088      1801.2333      7441.5793      11924.464      19366.043      132747.05      40.488495      40.488495      80.97699           16040 
    271000   3619.3818      894573.43      1997.9803      895297.11      893916.3       894506.89     -95.644335     -3565.379       787.77387      7503.7148      11749.069      19252.784      132872.35      40.501229      40.501229      81.002459          16040 
    272000   3626.5435      908321.07      2005.5809      909242.1       906272.12      909448.98     -1355.141      -1705.9272     -1053.0152      7518.5625      11846.174      19364.736      132513.19      40.464704      40.464704      80.929408          16040 
    273000   3602.8315      893237.78      2013.1804      891800.89      893884.29      894028.16      894.30612     -186.79781      4497.634       7469.4027      11691.352      19160.755      132899.03      40.50394       40.50394       81.007879          16040 
    274000   3558.8258      905218.02      2020.7849      905199.97      906687.1       903766.98     -1260.0569      130.64345     -2340.8042      7378.1699      11938.844      19317.014      132555.26      40.468986      40.468986      80.937973          16040 
    275000   3630.4632      894325.1       2028.3835      891384.21      894041.75      897549.33     -354.52757      174.92286     -1277.7975      7526.6889      11765.047      19291.736      132856.9       40.49966       40.49966       80.99932           16040 
    276000   3603.9565      901616.07      2035.9829      898646.61      904068.19      902133.4       2024.6289     -352.68999     -961.0253       7471.7352      11821.17       19292.906      132692.39      40.482936      40.482936      80.965873          16040 
    277000   3674.3689      901471.29      2043.5779      898970.36      903641.9       901801.62     -2095.8564     -3110.2958      750.31246      7617.7143      11888.496      19506.21       132705.7       40.48429       40.48429       80.96858           16040 
    278000   3588.6261      900564.44      2051.1772      900655.72      899319.61      901718.01     -4599.3115     -3967.4716      1724.4389      7439.9521      11837.488      19277.441      132647.46      40.478366      40.478366      80.956733          16040 
    279000   3597.775       895878.93      2058.7791      896920.29      894950.36      895766.14     -1576.792      -285.35182      4535.769       7458.9196      11750.529      19209.448      132865.52      40.500535      40.500535      81.001071          16040 
    280000   3628.9222      901412.46      2066.3778      897523.07      903626.62      903087.69     -192.12928      3705.3314      1240.8953      7523.4942      11798.227      19321.721      132733.33      40.487099      40.487099      80.974199          16040 
    281000   3581.2874      898286.34      2073.9735      896938.46      896701.93      901218.64     -3681.4878     -4.5490149     -964.02632      7424.7374      11811.352      19236.09       132785.83      40.492437      40.492437      80.984873          16040 
    282000   3597.779       901211.15      2081.5743      899271.73      902027.11      902334.63     -2394.432       1544.0592     -3115.9601      7458.9278      11827.441      19286.369      132764.75      40.490294      40.490294      80.980588          16040 
    283000   3567.9521      898288.79      2091.1245      898878.75      898185.96      897801.67     -4246.6853     -2574.5309      87.498195      7397.0906      11736.576      19133.666      132736.03      40.487374      40.487374      80.974747          16040 
    284000   3615.2888      902012.18      2098.7418      902680.93      905097.44      898258.15     -4563.4893      3125.6488     -2589.8203      7495.2293      11819.39       19314.619      132672.01      40.480864      40.480864      80.961728          16040 
    285000   3580.2183      894231.6       2106.3477      895279.75      895380.76      892034.29     -1273.8858     -2592.5532      966.35102      7422.5209      11823.91       19246.43       132877.6       40.501763      40.501763      81.003525          16040 
    286000   3572.7402      901621.95      2113.9507      900752.49      902730.93      901382.44     -5645.7133     -1527.8751      2813.7172      7407.0175      11792.43       19199.448      132679.01      40.481576      40.481576      80.963152          16040 
[...]
   3930000   4545.4807      900254.65      7223.5984      896757.93      897636.04      906369.97     -25714.408      10599.421      5178.5713      9423.7064      23089.498      32513.204      120248.03      39.418667      39.418667      77.388088          16040 
   3931000   4486.7264      900760.43      7231.3558      901818.14      896545.48      903917.66     -26166.602      6115.7421      1152.7894      9301.8968      23167.572      32469.469      120325.97      39.427182      39.427182      77.404805          16040 
   3932000   4520.8308      901668.34      7239.1145      903656.92      903208.87      898139.23     -28134.083     -2033.8506     -4546.4007      9372.602       23137.826      32510.428      120251.8       39.419078      39.419078      77.388896          16040 
   3933000   4505.7839      905589.12      7246.8722      909984.05      904964.74      901818.57     -25431.086      2493.8323      1220.7089      9341.4067      23229.276      32570.683      120142.69      39.407153      39.407153      77.365483          16040 
   3934000   4506.0118      891014         7254.6498      889412.01      888966.75      894663.24     -28678.424      209.37132      5115.2437      9341.8792      23048.023      32389.902      120464.46      39.442302      39.442302      77.434489          16040 
   3935000   4540.4523      900728.08      7262.4271      902422.68      900235.13      899526.44     -28510.577     -5720.0519     -5380.7055      9413.2815      23118.371      32531.652      120212.09      39.414739      39.414739      77.380376          16040 
   3936000   4552.8514      912386.36      7270.2254      918843.71      915531.43      902783.95     -24585.724      2263.389      -1488.1249      9438.9873      23261.025      32700.012      119912.81      39.382003      39.382003      77.316108          16040 
   3937000   4504.3488      896471.79      7277.9827      899681.4       896194.92      893539.05     -24254.969      623.22943      2784.2241      9338.4315      23135.295      32473.727      120314.03      39.425877      39.425877      77.402243          16040 
   3938000   4518.4425      905413.51      7285.7376      904428.97      908188.8       903622.76     -29550.709     -5403.2092     -3480.3282      9367.6507      23188.823      32556.474      120166.64      39.409771      39.409771      77.370624          16040 
   3939000   4563.4579      893383.79      7293.4933      894274.51      893657.58      892219.28     -25049.79       313.78239     -1533.0197      9460.9768      22956.7        32417.677      120412.02      39.436578      39.436578      77.423251          16040 
   3940000   4545.996       906629.15      7301.2497      911021.25      907844.07      901022.12     -28968.634      227.20133      1032.4012      9424.7747      23184.63       32609.405      120068.85      39.399078      39.399078      77.349631          16040 
   3941000   4536.4007      905521.54      7309.003       903596.69      900868.27      912099.67     -25766.561     -1796.0761     -1452.6145      9404.8816      23132.282      32537.164      120197.4       39.413133      39.413133      77.377224          16040 
   3942000   4517.5401      893697.75      7316.7592      895057.17      891015.62      895020.47     -31335.066      2532.0392      7134.6015      9365.7798      23021.961      32387.741      120462.87      39.442129      39.442129      77.434149          16040 
   3943000   4557.3006      896352.88      7324.5285      897426.33      895291.73      896340.58     -26164.687     -7129.0387     -2665.781       9448.2114      22998.201      32446.412      120356.83      39.430552      39.430552      77.411421          16040 
   3944000   4539.7928      905063.83      7332.3026      905659.86      905404.19      904127.44     -30346.34      -772.9848       596.26502      9411.9142      23169.082      32580.996      120116.67      39.404307      39.404307      77.359896          16040 
   3945000   4522.0696      904627.33      7340.0605      905348.64      906540.91      901992.44     -26020.769     -4118.2006      6398.0227      9375.1703      23215.446      32590.616      120099.12      39.402388      39.402388      77.356129          16040 
   3946000   4486.3944      900762.47      7347.8227      900959.36      900142.62      901185.44     -26308.59       558.6264      -338.75922      9301.2084      23167.586      32468.795      120313.21      39.425787      39.425787      77.402067          16040 
   3947000   4499.0324      903046.42      7355.5943      901995.43      905718.48      901425.35     -30270.41      -562.69079     -7107.7968      9327.4096      23183.651      32511.061      120236.95      39.417455      39.417455      77.38571           16040 
   3948000   4515.1124      906341.53      7363.3832      910483.12      901276.54      907264.95     -26704.68       854.44395      363.03248      9360.7467      23254.38       32615.126      120051.06      39.397132      39.397132      77.345811          16040 
   3949000   4486.5835      896488.6       7371.1621      901796.8       891395.3       896273.7      -26738.648      3948.2378     -7462.1403      9301.6005      23152.816      32454.417      120335.25      39.428195      39.428195      77.406795          16040 
   3950000   4508.6402      897098.22      7378.914       894530.08      896945.12      899819.45     -27204.327     -2471.6418     -3083.753       9347.3286      23092.105      32439.433      120362.24      39.431142      39.431142      77.41258           16040 
   3951000   4523.137       906359.14      7386.6688      911218.76      902370.91      905487.74     -25736.185     -3218.2387     -830.52424      9377.3834      23192.326      32569.71       120128.21      39.40557       39.40557       77.362375          16040 
   3952000   4504.3101      903284.8       7394.4228      904656.79      900618.17      904579.45     -29692.496      331.37751      5104.0827      9338.3514      23215.358      32553.709      120156.02      39.40861       39.40861       77.368345          16040 
   3953000   4496.2744      900652.26      7402.1799      902372.79      900262.9       899321.09     -25967.132     -7375.7611      1277.7582      9321.6916      23143.142      32464.833      120312.92      39.425756      39.425756      77.402006          16040 
   3954000   4501.4882      896904.47      7409.9443      900433.69      894812.48      895467.25     -30091.429      2089.1439      3160.1         9332.5009      23120.875      32453.376      120333.15      39.427965      39.427965      77.406342          16040 
   3955000   4486.8266      905198.56      7417.7203      905352.9       904105.18      906137.59     -27937.046      9038.5578      1712.2375      9302.1045      23244.621      32546.726      120166.95      39.409804      39.409804      77.370689          16040 
   3956000   4492.7455      905339.92      7425.519       906270         903837.5       905912.25     -27766.46      -328.68408      543.47165      9314.3756      23234.715      32549.09       120162.04      39.409268      39.409268      77.369636          16040 
   3957000   4537.298       897116.31      7433.2832      894567.9       898324.1       898456.93     -26977.325      640.17066     -810.69551      9406.742       23056.475      32463.217      120313.53      39.425823      39.425823      77.402137          16040 
   3958000   4517.2936      899852.5       7441.0392      902740.72      899328.19      897488.58     -30120.569      13475.512     -271.46708      9365.2686      23147.334      32512.603      120225.27      39.416179      39.416179      77.383204          16040 
   3959000   4492.8778      903145.27      7448.7947      900108.95      903347.79      905979.09     -27092.035     -1182.3388      2372.0268      9314.6499      23236.267      32550.917      120156.89      39.408705      39.408705      77.368531          16040 
   3960000   4526.5345      902726.99      7456.5508      903451.16      905637.73      899092.08     -28026.955     -2120.013      -2935.0294      9384.4269      23153.526      32537.952      120177.48      39.410956      39.410956      77.372951          16040 
   3961000   4539.2318      890818.08      7464.303       889951.63      890861.45      891641.17     -23779.977     -3108.5673     -967.44706      9410.7511      22940.144      32350.895      120512.09      39.447499      39.447499      77.444693          16040 
   3962000   4529.8595      902347.84      7472.061       904018.48      902356.39      900668.65     -30418.003     -2519.4193      2101.9548      9391.3203      23158.216      32549.536      120157.32      39.408752      39.408752      77.368624          16040 
   3963000   4513.1364      899704.16      7479.8388      905203.71      898118.59      895790.19     -27583.186     -2151.0299     -4634.2882      9356.65        23150.122      32506.772      120232.61      39.416982      39.416982      77.38478           16040 
   3964000   4452.1985      901337.46      7487.6162      899873.37      898021.43      906117.58     -26044.312     -2553.7544      4337.237       9230.3135      23231.746      32462.06       120311.57      39.425609      39.425609      77.401717          16040 
   3965000   4513.128       893733.23      7495.4056      889592.1       894505.77      897101.81     -31060.739      1265.1501     -1748.6719      9356.6326      23076.388      32433.021      120362.35      39.431154      39.431154      77.412603          16040 
   3966000   4494.8077      902692.18      7503.1602      897363.05      903586.22      907127.26     -26381.721      2178.4454     -3032.4985      9318.6509      23182.716      32501.367      120239.22      39.417703      39.417703      77.386197          16040 
   3967000   4489.1241      903197.18      7510.9164      906041.73      904098.27      899451.55     -26150.365     -3993.1879     -4903.7055      9306.8675      23222.005      32528.873      120188.42      39.412152      39.412152      77.375298          16040 
   3968000   4463.1381      899515.28      7518.6767      898390.02      898922.03      901233.81     -28321.131     -2989.1335      7319.4863      9252.9935      23202.578      32455.571      120316.09      39.426102      39.426102      77.402685          16040 
   3969000   4507.9363      902554.22      7526.4326      903513.08      897685.95      906463.64     -25310.253     -1248.5906     -1040.2869      9345.8692      23151.352      32497.221      120238.43      39.417617      39.417617      77.386028          16040 
   3970000   4524.3701      907152.75      7534.1881      910259.44      904590.75      906608.06     -27906.186     -4329.6597     -4893.5892      9379.9398      23193.357      32573.297      120104.44      39.402971      39.402971      77.357273          16040 
   3971000   4533.7195      895100.26      7541.9528      894001.51      896832.75      894466.53     -26177.956     -2318.2043      8139.1344      9399.3229      23032.242      32431.565      120356.13      39.430475      39.430475      77.411271          16040 
   3972000   4499.7017      900347.93      7549.728       900316.44      900287.49      900439.86     -27643.64      -583.15292     -2259.8686      9328.7972      23175.202      32503.999      120227.03      39.416372      39.416372      77.383583          16040 
   3973000   4503.8332      900633.71      7557.4973      901949.61      901570.43      898381.1      -27891.316     -2316.3508      968.23178      9337.3627      23146.106      32483.469      120262.36      39.420233      39.420233      77.391162          16040 
   3974000   4535.0491      898354.05      7565.2582      900623.97      897889.48      896548.71     -24237.932      1564.0742     -251.8357       9402.0795      23079.804      32481.883      120264.56      39.420473      39.420473      77.391633          16040 
   3975000   4520.7599      897334.34      7573.0271      898305.58      899032.61      894664.83     -27529.667      2508.8914     -2000.8365      9372.4551      23091.552      32464.007      120293.52      39.423637      39.423637      77.397845          16040 
   3976000   4539.7918      900315.36      7580.7942      899534.02      902932.93      898479.13     -29993.168     -3883.4473     -2030.1613      9411.912       23076.724      32488.636      120247.21      39.418577      39.418577      77.387912          16040 
   3977000   4537.5818      907968.74      7588.5971      911198.04      910400.25      902307.92     -29075.673      381.61068      3630.7304      9407.3303      23190.87       32598.2        120052.15      39.397251      39.397251      77.346043          16040 
   3978000   4515.5672      901629.88      7596.3524      903151.9       903026.78      898710.98     -30316.746     -775.39309      4221.7781      9361.6897      23134.067      32495.757      120232.33      39.416951      39.416951      77.384719          16040 
   3979000   4510.7935      896971.82      7604.1111      903077.65      894780.63      893057.19     -28266.719     -1365.8921     -7004.2151      9351.7927      23110.579      32462.372      120291.01      39.423363      39.423363      77.397307          16040 
   3980000   4527.6826      896484.73      7611.8642      900523.09      893367.05      895564.03     -26803.143      2480.2271      975.58667      9386.8073      23021.007      32407.814      120384.85      39.433611      39.433611      77.417427          16040 
   3981000   4550.8714      905125.32      7619.6216      907871.68      904280.34      903223.95     -24558.794      4584.9372      7868.6483      9434.8823      23100.286      32535.168      120156.74      39.408688      39.408688      77.368498          16040 
   3982000   4536.6818      895578.19      7627.3779      896348.35      895091.27      895294.96     -28978.815     -6157.4536     -4571.2827      9405.4645      23021.39       32426.855      120348.04      39.429592      39.429592      77.409536          16040 
   3983000   4527.449       901296.87      7635.1528      904645.33      901072.05      898173.22     -26416.228     -6409.098      -4986.1755      9386.3229      23149.633      32535.956      120151.57      39.408124      39.408124      77.36739           16040 
   3984000   4492.4617      899410.01      7642.9311      894985.26      901528.91      901715.86     -26410.773      7256.4319      3915.8285      9313.7873      23109.482      32423.269      120352.07      39.430032      39.430032      77.4104            16040 
   3985000   4503.1734      903179.23      7650.7203      900821         906836.41      901880.3      -22624         -3111.2506      328.9657       9335.9946      23169.635      32505.63       120204.14      39.413871      39.413871      77.378672          16040 
   3986000   4517.8005      907228.53      7658.4774      911189.34      907701.37      902794.87     -28340.417     -3428.0222     -1019.5469      9366.3197      23245.269      32611.588      120015.03      39.39319       39.39319       77.338071          16040 
   3987000   4509.1912      899889.18      7666.2324      899172.6       898675.98      901818.96     -28779.868      5723.6567      6896.8297      9348.4709      23116.262      32464.733      120275.06      39.42162       39.42162       77.393886          16040 
   3988000   4521.1454      901140.54      7673.9864      902297.66      894604.99      906518.98     -30408.898      4771.3805      1428.2656      9373.2544      23089.169      32462.423      120279.07      39.422058      39.422058      77.394747          16040 
   3989000   4462.7015      902569.52      7681.7416      901730.68      897232.78      908745.1      -29334.92      -4085.604      -10760.471      9252.0882      23228.339      32480.428      120246.84      39.418537      39.418537      77.387833          16040 
   3990000   4507.3313      900383.1       7689.4984      902820.04      897778.17      900551.08     -24756.445      2944.8423      953.16255      9344.6149      23154.095      32498.71       120212.74      39.414809      39.414809      77.380515          16040 
   3991000   4488.8839      893039.36      7697.2682      894096.61      891444.53      893576.95     -24666.641      938.44159     -916.5306       9306.3697      23074.94       32381.309      120420.62      39.437516      39.437516      77.425094          16040 
   3992000   4481.8176      895973.23      7705.0403      896540.64      891648.3       899730.75     -30645.822      451.97425     -3495.5499      9291.7198      23125.471      32417.191      120356.03      39.430464      39.430464      77.41125           16040 
   3993000   4537.2706      904113.31      7712.837       900909.08      905403.68      906027.17     -28691.472      3605.4574      1521.4864      9406.6851      23167.869      32574.554      120071.76      39.399396      39.399396      77.350256          16040 
   3994000   4517.0116      899306.3       7720.5942      902211.45      896627.54      899079.92     -26763.454      3559.4565     -1083.1026      9364.6842      23110.742      32475.426      120246.76      39.418528      39.418528      77.387815          16040 
   3995000   4537.0548      901358.01      7728.3479      897991.9       901478         904604.12     -29230.276     -852.57498      6418.6186      9406.2378      23078.772      32485.01       120228.93      39.416579      39.416579      77.383989          16040 
   3996000   4474.8995      893664.3       7736.1011      895802.64      892460.91      892729.35     -29626.911     -489.60734     -902.24015      9277.3771      23070.842      32348.219      120469.05      39.442802      39.442802      77.435472          16040 
   3997000   4472.1351      900934.81      7743.8546      898295.73      901599.23      902909.46     -25943.92       3478.0257     -51.182772      9271.6459      23191.158      32462.804      120263.83      39.420393      39.420393      77.391477          16040 
   3998000   4460.4859      899976.12      7751.6097      894705.6       899063.9       906158.86     -25119.681     -3523.7923     -3979.465       9247.4949      23209.795      32457.289      120271.13      39.421191      39.421191      77.393044          16040 
   3999000   4477.5893      900473.5       7759.3688      900072.9       902620.95      898726.66     -26026.431     -9425.4719      3581.3675      9282.9537      23182.67       32465.623      120255.78      39.419514      39.419514      77.389751          16040 
   4000000   4459.8816      901985.15      7767.1463      903931.22      902186.73      899837.5      -26374.255     -2068.2116      1656.9295      9246.2419      23230.85       32477.092      120234.65      39.417204      39.417204      77.385216          16040 
Loop time of 7767.15 on 8 procs for 1000000 steps with 16040 atoms

Performance: 5.562 ns/day, 4.315 hours/ns, 128.747 timesteps/s
60.7% CPU use with 1 MPI tasks x 8 OpenMP threads

MPI task timing breakdown:
Section |  min time  |  avg time  |  max time  |%varavg| %total
---------------------------------------------------------------
Pair    | 7482.8     | 7482.8     | 7482.8     |   0.0 | 96.34
Neigh   | 14.287     | 14.287     | 14.287     |   0.0 |  0.18
Comm    | 41.251     | 41.251     | 41.251     |   0.0 |  0.53
Output  | 1.3945     | 1.3945     | 1.3945     |   0.0 |  0.02
Modify  | 203.17     | 203.17     | 203.17     |   0.0 |  2.62
Other   |            | 24.21      |            |       |  0.31

Nlocal:          16040 ave       16040 max       16040 min
Histogram: 1 0 0 0 0 0 0 0 0 0
Nghost:          15652 ave       15652 max       15652 min
Histogram: 1 0 0 0 0 0 0 0 0 0
Neighs:              0 ave           0 max           0 min
Histogram: 1 0 0 0 0 0 0 0 0 0
FullNghs:  1.91428e+06 ave 1.91428e+06 max 1.91428e+06 min
Histogram: 1 0 0 0 0 0 0 0 0 0

Total # of neighbors = 1914278
Ave neighs/atom = 119.34401
Neighbor list builds = 35273
Dangerous builds = 0
Total wall time: 8:38:41
