
atom_style atomic
units metal
boundary p p p
#atom_modify sort 0 0.0
newton on

read_data data.lammps
Reading data file ...
  orthogonal box = (0 0 0) to (43.790145 43.790145 87.58029)
  1 by 1 by 1 MPI processor grid
  reading atoms ...
  16040 atoms
  read_data CPU = 0.044 seconds
# replicate 10 10 20

### interactions

pair_style flare
pair_coeff * * lmp.flare
Reading potential file lmp.flare with DATE: Thu

# compute unc all flare/std/atom L_inv_lmp.flare sparse_desc_lmp.flare
# compute MaxUnc all reduce max c_unc

mass 1 12.011000
mass 2 28.085000

thermo_style custom step temp press cpu pxx pyy pzz pxy pxz pyz ke pe etotal vol lx ly lz atoms    #c_MaxUnc
thermo 1000
timestep 0.0005
restart 100000 restart_*.dat

#################### Equilibrate at P and T_es ##############################
velocity all create $T 41928459 rot yes dist gaussian
velocity all create 2800 41928459 rot yes dist gaussian
fix mom all momentum 1000 linear 1 1 1 angular

fix 1 all npt temp $T $T $(100.0*dt) iso $P $P $(1000.0*dt)
fix 1 all npt temp 2800 $T $(100.0*dt) iso $P $P $(1000.0*dt)
fix 1 all npt temp 2800 2800 $(100.0*dt) iso $P $P $(1000.0*dt)
fix 1 all npt temp 2800 2800 0.050000000000000002776 iso $P $P $(1000.0*dt)
fix 1 all npt temp 2800 2800 0.050000000000000002776 iso 600000 $P $(1000.0*dt)
fix 1 all npt temp 2800 2800 0.050000000000000002776 iso 600000 600000 $(1000.0*dt)
fix 1 all npt temp 2800 2800 0.050000000000000002776 iso 600000 600000 0.5
dump 1 all custom 1000 1equil.bin id type x y z vx vy vz
run   10000 # report performance
Neighbor list info ...
  update every 1 steps, delay 10 steps, check yes
  max neighbors/atom: 2000, page size: 100000
  master list distance cutoff = 6
  ghost atom cutoff = 6
  binsize = 6, bins = 8 8 15
  1 neighbor lists, perpetual/occasional/extra = 1 0 0
  (1) pair flare/kk, perpetual
      attributes: full, newton on, kokkos_device
      pair build: full/bin/kk/device
      stencil: full/bin/3d
      bin: kk/device
Per MPI rank memory allocation (min/avg/max) = 16.04 | 16.04 | 16.04 Mbytes
   Step          Temp          Press           CPU            Pxx            Pyy            Pzz            Pxy            Pxz            Pyz           KinEng         PotEng         TotEng         Volume           Lx             Ly             Lz          Atoms   
         0   2800           71353.551      0              72052.679      70864.57       71143.404      1213.1426     -256.8206      -717.39017      5804.9697     -2985.8921      2819.0777      167941.93      43.790145      43.790145      87.58029           16040 
      1000   2840.4019      597054.17      7.0775282      595210.91      598527.11      597424.48     -271.33157      326.01841     -89.361129      5888.7311      6761.7481      12650.479      141883.19      41.39682       41.39682       82.79364           16040 
      2000   2758.2099      600867.83      14.548853      599989.87      602111         600502.63      1997.3048     -1655.6855      1725.6593      5718.3304      6528.5778      12246.908      141566.28      41.365976      41.365976      82.731952          16040 
      3000   2822.2274      599075.18      22.016845      598226.39      599854.79      599144.36      391.30302      429.45622     -187.73964      5851.0516      6624.6169      12475.669      141648.94      41.374025      41.374025      82.748051          16040 
      4000   2769.6502      600409.07      29.482624      600357.27      601054.61      599815.35      819.94993     -4195.2637      1638.1941      5742.0484      6525.6415      12267.69       141568.8       41.366221      41.366221      82.732442          16040 
      5000   2798.3327      599983.01      36.950793      598429.39      601526.23      599993.41      3392.3996     -417.70457     -1597.7637      5801.513       6653.6936      12455.207      141609.79      41.370213      41.370213      82.740426          16040 
      6000   2797.0443      600311.02      44.417235      601407.07      601810.68      597715.31      1347.3756      1307.7997     -1247.4928      5798.842       6538.5134      12337.355      141530.51      41.362492      41.362492      82.724983          16040 
      7000   2796.7939      601488.7       51.887057      600456.26      601847.83      602162.01     -3604.0303     -815.76287     -1202.0343      5798.3228      6676.0908      12474.414      141516.29      41.361107      41.361107      82.722213          16040 
      8000   2770.6422      601667.68      59.357312      602864.95      600987.05      601151.04      176.42436      894.49672      1085.161       5744.1051      6582.4601      12326.565      141462.68      41.355883      41.355883      82.711766          16040 
      9000   2829.582       600749.16      66.826182      601800.53      599459.31      600987.65      1591.0502      571.60298      997.07727      5866.2992      6592.637       12458.936      141508         41.360299      41.360299      82.720597          16040 
     10000   2798.4958      594518.89      74.299063      593290.5       596253.04      594013.11     -1709.1663      551.39623      604.26403      5801.8511      6443.1645      12245.016      141676.85      41.376743      41.376743      82.753485          16040 
Loop time of 74.2991 on 8 procs for 10000 steps with 16040 atoms

Performance: 5.814 ns/day, 4.128 hours/ns, 134.591 timesteps/s
61.2% CPU use with 1 MPI tasks x 8 OpenMP threads

MPI task timing breakdown:
Section |  min time  |  avg time  |  max time  |%varavg| %total
---------------------------------------------------------------
Pair    | 71.269     | 71.269     | 71.269     |   0.0 | 95.92
Neigh   | 0.085387   | 0.085387   | 0.085387   |   0.0 |  0.11
Comm    | 0.33491    | 0.33491    | 0.33491    |   0.0 |  0.45
Output  | 0.013554   | 0.013554   | 0.013554   |   0.0 |  0.02
Modify  | 2.3205     | 2.3205     | 2.3205     |   0.0 |  3.12
Other   |            | 0.2754     |            |       |  0.37

Nlocal:          16040 ave       16040 max       16040 min
Histogram: 1 0 0 0 0 0 0 0 0 0
Nghost:          13936 ave       13936 max       13936 min
Histogram: 1 0 0 0 0 0 0 0 0 0
Neighs:              0 ave           0 max           0 min
Histogram: 1 0 0 0 0 0 0 0 0 0
FullNghs:  1.63283e+06 ave 1.63283e+06 max 1.63283e+06 min
Histogram: 1 0 0 0 0 0 0 0 0 0

Total # of neighbors = 1632834
Ave neighs/atom = 101.79763
Neighbor list builds = 210
Dangerous builds = 0
run  990000
Per MPI rank memory allocation (min/avg/max) = 16.23 | 16.23 | 16.23 Mbytes
   Step          Temp          Press           CPU            Pxx            Pyy            Pzz            Pxy            Pxz            Pyz           KinEng         PotEng         TotEng         Volume           Lx             Ly             Lz          Atoms   
     10000   2798.4958      594518.89      0              593290.5       596253.04      594013.11     -1709.1663      551.39623      604.26403      5801.8511      6443.1645      12245.016      141676.85      41.376743      41.376743      82.753485          16040 
     11000   2792.0992      605906.38      7.469522       606568.96      604996.98      606153.19      313.62151      812.77021     -423.13729      5788.5897      6716.6094      12505.199      141346.04      41.344513      41.344513      82.689027          16040 
     12000   2810.7261      601042.83      14.943348      602233.94      599973.31      600921.25      2154.7395     -832.01398      6430.3691      5827.207       6553.7453      12380.952      141469.25      41.356523      41.356523      82.713047          16040 
     13000   2835.6104      598298.86      22.416146      599866.23      596974.36      598055.99     -1986.9019      421.42318      3804.0385      5878.7972      6580.0487      12458.846      141589.18      41.368206      41.368206      82.736413          16040 
     14000   2796.4063      602164.94      29.891569      602614.09      604558.92      599321.81      479.68585      794.41007     -174.6927       5797.5193      6589.4356      12386.955      141397.78      41.349557      41.349557      82.699114          16040 
     15000   2796.7926      599923.84      37.365547      599699.42      600944.26      599127.84     -2685.2437     -2818.8911     -4165.0597      5798.3202      6574.9173      12373.237      141542.96      41.363704      41.363704      82.727408          16040 
     16000   2781.4967      599306.17      44.837608      599738.75      600180.45      597999.31      445.34106      262.51631      2356.2185      5766.6087      6553.8712      12320.48       141498.73      41.359395      41.359395      82.718791          16040 
     17000   2803.3079      606770.88      52.310794      606945.95      607066.01      606300.67      2712.9838      2629.0361      2887.2315      5811.8277      6594.401       12406.229      141174.98      41.327828      41.327828      82.655655          16040 
     18000   2804.7028      597008.25      59.780862      597122.63      596533.36      597368.75      432.75576     -2371.1846     -33.956735      5814.7195      6509.5561      12324.276      141553.93      41.364773      41.364773      82.729546          16040 
     19000   2818.7805      600297.19      67.252867      599875.53      600168.68      600847.36     -234.70884     -29.691898     -1859.6913      5843.9055      6542.7789      12386.684      141449.44      41.354592      41.354592      82.709185          16040 
     20000   2803.3025      599857.2       74.725243      600756.09      598594.93      600220.58      837.7916      -1534.1829      1260.5947      5811.8165      6533.5592      12345.376      141479.76      41.357547      41.357547      82.715094          16040 
     21000   2787.288       599602.2       82.197636      602071.26      598415.52      598319.83      493.59949      2747.8131      1718.2194      5778.6152      6497.1599      12275.775      141462.3       41.355846      41.355846      82.711692          16040 
     22000   2783.3893      599800.13      89.669254      597997.45      599809.85      601593.1       3278.2111      1018.094      -1026.2494      5770.5322      6518.7778      12289.31       141450.67      41.354712      41.354712      82.709425          16040 
     23000   2811.954       602964.33      97.140192      603315.12      602585.19      602992.68      2022.1513     -475.37225     -351.89346      5829.7527      6596.2559      12426.009      141403.07      41.350073      41.350073      82.700147          16040 
     24000   2781.6903      590037.02      104.61046      589448.22      588323.87      592338.96      627.77505     -590.55055     -487.91317      5767.0099      6404.7166      12171.726      141819.73      41.390647      41.390647      82.781294          16040 
     25000   2777.8118      604237.68      112.08245      603350.63      604416.26      604946.15      1575.6606     -5886.8178     -4003.5506      5758.969       6597.0404      12356.009      141310.38      41.341036      41.341036      82.682071          16040 
     26000   2812.4188      599895.57      119.55624      601315.25      599566.67      598804.78     -4085.7966      558.9578       3690.082       5830.7165      6506.1302      12336.847      141480.82      41.35765       41.35765       82.715301          16040 
     27000   2789.3039      599783.38      127.02682      599379.54      597932.56      602038.05      391.24868     -950.30391      1921.4878      5782.7944      6464.1017      12246.896      141448.43      41.354494      41.354494      82.708988          16040 
     28000   2824.2997      600238.01      134.49994      600152.41      598696.26      601865.36      5305.016      -4023.2998      1296.0784      5855.3479      6481.5944      12336.942      141474.6       41.357044      41.357044      82.714089          16040 
     29000   2769.2422      602921.78      141.97061      601823.07      604087.98      602854.29      377.61009     -454.43606      3371.2789      5741.2026      6546.9833      12288.186      141375.46      41.347381      41.347381      82.694763          16040 
     30000   2787.906       596212.89      149.44484      596440.34      595205.22      596993.13      49.886322     -592.14986      1086.4424      5779.8965      6455.9352      12235.832      141635.27      41.372694      41.372694      82.745389          16040 
     31000   2794.048       607891.34      156.92036      607794.09      608304.1       607575.83     -397.99983     -2818.3296     -1507.2753      5792.63        6596.7112      12389.341      141220.78      41.332297      41.332297      82.664593          16040 
     32000   2786.4066      598625         164.39403      598858.97      597618.46      599397.56     -1355.6473      2547.9288     -1273.0704      5776.7878      6457.4786      12234.266      141537.3       41.363153      41.363153      82.726306          16040 
     33000   2820.7533      599693.5       171.86792      600767.4       598680.27      599632.84      3208.0858     -159.54004     -165.91195      5847.9956      6460.3209      12308.317      141516.1       41.361088      41.361088      82.722176          16040 
     34000   2753.6821      601300.37      179.34118      602948.22      601886.81      599066.08     -3861.9728      1664.7286      2918.5507      5708.9432      6557.9218      12266.865      141428.81      41.352582      41.352582      82.705165          16040 
     35000   2806.2851      597625.15      186.81362      597363.5       596511.62      599000.32      2796.9288      1371.2469     -5187.3329      5818           6505.2751      12323.275      141539.2       41.363338      41.363338      82.726676          16040 
     36000   2783.714       600171.91      194.2854       602683.16      599998.93      597833.64     -1081.6256     -1523.976       1516.7654      5771.2056      6517.7414      12288.947      141448.83      41.354533      41.354533      82.709066          16040 
     37000   2835.1001      604285.2       201.76026      604871.68      603137.94      604845.98     -67.139803     -346.18922     -1876.4802      5877.7394      6546.2104      12423.95       141345.04      41.344415      41.344415      82.688831          16040 
     38000   2781.4143      590850.09      209.23608      591456.01      589744.68      591349.57      3248.8474      4854.4567     -1189.0189      5766.4378      6357.5201      12123.958      141802.17      41.388939      41.388939      82.777878          16040 
     39000   2791.2509      605481.69      216.71035      606358.5       604266.87      605819.72      1473.2947      317.45521     -1024.5251      5786.8311      6567.6752      12354.506      141339.22      41.343849      41.343849      82.687697          16040 
     40000   2790.8929      599543.07      224.18668      598144.98      599315.7       601168.53     -2780.6027      155.26924     -2831.8031      5786.0889      6492.8667      12278.956      141505.84      41.360088      41.360088      82.720177          16040 
     41000   2808.6756      600913.22      231.66149      599914.78      600718.71      602106.18     -2178.5135      3479.0757      3553.8661      5822.956       6452.3019      12275.258      141462.1       41.355827      41.355827      82.711653          16040 
     42000   2792.4556      601802.89      239.13801      601736.36      602507.62      601164.7      -1031.6862      1121.0107      1354.0045      5789.3286      6495.2808      12284.609      141397.3       41.34951       41.34951       82.699021          16040 
     43000   2790.4869      600599.84      246.61634      598748.78      601153.85      601896.91      1275.9464     -2611.974      -1924.2406      5785.2471      6502.7998      12288.047      141469.48      41.356545      41.356545      82.71309           16040 
     44000   2776.7717      602189.56      254.09305      602417.26      602264.25      601887.18      3979.1908      1721.099       640.0716       5756.8128      6442.1812      12198.994      141372.75      41.347117      41.347117      82.694234          16040 
     45000   2784.0477      600575.19      261.5692       600004.9       601258.9       600461.76     -2058.2434     -1161.9412      1274.0028      5771.8974      6551.5851      12323.483      141419.05      41.35163       41.35163       82.703261          16040 
     46000   2817.1556      593607.03      269.04756      594538.93      591830.52      594451.65     -1304.0069      3380.8387     -441.37116      5840.5368      6337.4404      12177.977      141658.93      41.374998      41.374998      82.749997          16040 
     47000   2804.1459      602019.07      276.52808      601640.61      601778.62      602637.99     -1488.0545     -200.1495      -1293.2572      5813.565       6473.7972      12287.362      141428.59      41.35256       41.35256       82.705121          16040 
     48000   2788.8323      603233.75      284.0044       603005.05      603551.36      603144.82      41.741988     -778.15763      1817.0401      5781.8167      6514.6676      12296.484      141358.54      41.345732      41.345732      82.691463          16040 
     49000   2792.5786      599385.76      291.48112      599612.93      598094.67      600449.68     -4065.5155      1484.2782     -177.43097      5789.5836      6409.0295      12198.613      141485.72      41.358128      41.358128      82.716256          16040 
     50000   2807.2075      599467.22      298.95989      598275.67      599359.94      600766.06      546.9372       2237.6539      1874.6341      5819.9123      6479.8725      12299.785      141499.67      41.359487      41.359487      82.718974          16040 
     51000   2822.3638      599669.93      306.43504      600220.8       599920.1       598868.89      650.01176      1926.5695      540.01381      5851.3343      6371.6874      12223.022      141467.71      41.356373      41.356373      82.712745          16040 
     52000   2818.9342      602337.14      313.91185      602283.98      602673.98      602053.47     -1322.2578      3946.5893     -2831.9918      5844.2241      6451.7924      12296.016      141400.45      41.349817      41.349817      82.699635          16040 
     53000   2799.6028      598334.82      321.39048      599944.35      598296.13      596763.97      1440.4892      46.009182      527.54531      5804.1461      6472.25        12276.396      141558.37      41.365206      41.365206      82.730412          16040 
     54000   2792.3281      597727.19      328.86354      597965.67      596802.26      598413.64      1166.5242     -2292.4279      2824.5834      5789.0642      6324.718       12113.782      141550.67      41.364455      41.364455      82.72891           16040 
     55000   2770.2115      604813.4       336.34201      603582.4       605463.8       605394.01     -1278.9626     -2430.7563      3056.632       5743.2121      6534.3476      12277.56       141255.38      41.335672      41.335672      82.671345          16040 
     56000   2809.4633      594601.25      343.81928      594240.44      594840.21      594723.09     -1765.6297     -2141.1872     -722.88165      5824.5891      6362.4528      12187.042      141650.24      41.374152      41.374152      82.748304          16040 
     57000   2818.3418      601702.93      351.29538      602131.91      601500.21      601476.68     -5486.2487     -1029.9044     -2148.0884      5842.996       6498.0444      12341.04       141404.23      41.350186      41.350186      82.700373          16040 
     58000   2808.0209      603441.9       358.77361      603560.44      602666.03      604099.22      977.92497     -1187.1607     -3901.4863      5821.5987      6468.8481      12290.447      141399.78      41.349752      41.349752      82.699504          16040 
     59000   2794.9782      594294.36      366.25238      593719.39      594067.08      595096.61      338.95645     -879.08548      4464.5828      5794.5586      6375.9307      12170.489      141650.78      41.374205      41.374205      82.74841           16040 
     60000   2798.5711      605525.48      373.7289       604032.67      607119.93      605423.85     -2480.1635     -1262.544      -1537.0068      5802.0074      6455.2388      12257.246      141265.01      41.336611      41.336611      82.673222          16040 
     61000   2800.5668      598918.29      381.20597      599431.86      598697.14      598625.87     -6091.7538     -1115.6833      388.01789      5806.1448      6420.7068      12226.852      141514.49      41.360931      41.360931      82.721862          16040 
     62000   2769.3015      597765.81      388.68442      596481.88      598983.27      597832.28     -1724.6669      1064.0983     -2057.3951      5741.3255      6457.1924      12198.518      141543.03      41.363711      41.363711      82.727423          16040 
     63000   2791.8499      601722         396.15985      602293.76      601883.54      600988.7       1971.5507      186.01125     -1739.0604      5788.0728      6389.8497      12177.922      141389.38      41.348739      41.348739      82.697478          16040 
     64000   2822.533       597596.67      403.63733      598135.1       596251.36      598403.54     -2957.1942      6448.0724      802.05174      5851.6853      6420.2268      12271.912      141529.53      41.362396      41.362396      82.724792          16040 
     65000   2798.0658      598418.83      411.11464      599121.5       598446.06      597688.94     -512.86382      398.51934     -320.56422      5800.9597      6396.1085      12197.068      141431.53      41.352847      41.352847      82.705694          16040 
     66000   2815.3265      608570.6       418.5925       607282.32      610378.76      608050.71      2514.9648      2806.576       3332.8886      5836.7447      6564.5968      12401.341      141193.6       41.329645      41.329645      82.659289          16040 
     67000   2800.5113      592884.43      426.06874      594683.23      591200.97      592769.08     -3267.2343      618.59274      5703.2757      5806.0298      6329.3433      12135.373      141666.83      41.375768      41.375768      82.751535          16040 
     68000   2796.9047      598996.21      433.54578      598409.87      599191.98      599386.79     -2762.2486     -174.84159     -3823.7317      5798.5526      6533.254       12331.807      141440.27      41.353699      41.353699      82.707398          16040 
     69000   2811.982       600323         441.02063      598721.07      599537.68      602710.27     -2437.1011      1504.1534      1980.7105      5829.8109      6388.3855      12218.196      141468.69      41.356468      41.356468      82.712936          16040 
     70000   2820.2512      598754.44      448.49367      597980.21      600312.88      597970.23      1539.4524     -3704.2246      647.16748      5846.9546      6305.7475      12152.702      141489.04      41.358452      41.358452      82.716904          16040 
     71000   2795.7146      604395.25      455.97037      605335.45      605658.46      602191.83      1183.5893      608.42627     -497.2675       5796.0852      6497.2752      12293.36       141324.02      41.342366      41.342366      82.684732          16040 
     72000   2812.66        598795.52      463.4464       599273.12      597764.64      599348.8      -107.11066     -1658.2248      1306.3872      5831.2164      6370.3667      12201.583      141535.42      41.36297       41.36297       82.725939          16040 
     73000   2798.8091      597999.34      470.92501      597581.78      597293.87      599122.38     -892.74002     -5505.068      -762.44698      5802.5007      6391.6202      12194.121      141568.81      41.366223      41.366223      82.732445          16040 
     74000   2824.713       605285.24      478.3996       606774         604947.94      604133.77     -1605.1442      1265.8832     -2876.7207      5856.2049      6472.0618      12328.267      141305.18      41.340529      41.340529      82.681057          16040 
     75000   2800.2099      596417.39      485.88076      596771.31      596332.99      596147.86     -2549.3316      1683.7912      2160.6508      5805.4049      6390.4987      12195.904      141592.41      41.368521      41.368521      82.737042          16040 
     76000   2786.2969      599748.47      493.36277      599134.41      602268.39      597842.61     -1486.5399      3371.1195      4574.2015      5776.5604      6425.757       12202.317      141408.1       41.350563      41.350563      82.701126          16040 
     77000   2809.1131      595413.86      500.84233      594499.59      597464.88      594277.11     -2262.0431      1872.383       503.07327      5823.863       6339.3971      12163.26       141607.81      41.370021      41.370021      82.740042          16040 
     78000   2805.6462      602537.72      508.32209      600711.67      604543.18      602358.33      1504.493       953.39689     -1508.074       5816.6754      6489.24        12305.915      141363.48      41.346214      41.346214      82.692427          16040 
     79000   2762.3196      598936.36      515.80315      599556.5       598452.93      598799.66     -2565.7863      1891.5934      1170.3979      5726.8506      6350.7717      12077.622      141431.67      41.352861      41.352861      82.705721          16040 
     80000   2803.9348      598145.41      523.28876      597502.65      598817.76      598115.82      1797.0149     -45.988161     -1541.7954      5813.1274      6391.6188      12204.746      141560.22      41.365385      41.365385      82.730771          16040 
     81000   2813.9742      601095.96      530.76934      601542.61      601618.93      600126.35      2626.8717     -84.578428     -1730.5108      5833.9411      6439.6811      12273.622      141412.55      41.350998      41.350998      82.701995          16040 
     82000   2815.9597      601355.8       538.25065      601221.85      601064.58      601780.97      121.7824       2223.787      -1487.526       5838.0575      6433.7638      12271.821      141452.12      41.354854      41.354854      82.709708          16040 
     83000   2817.281       600648.69      545.73154      600434.81      601974.84      599536.42      575.30745     -642.03339      2119.0069      5840.7968      6371.2823      12212.079      141424.14      41.352127      41.352127      82.704254          16040 
     84000   2848.227       597814.18      553.21094      598378.98      598398.02      596665.53     -788.97498     -3229.3602      1705.7038      5904.9542      6382.8165      12287.771      141551.19      41.364506      41.364506      82.729012          16040 
     85000   2825.416       601692.98      560.69363      601649.26      602337.27      601092.42      2127.6636      641.18585      582.51859      5857.6622      6392.2729      12249.935      141433.15      41.353005      41.353005      82.706011          16040 
     86000   2798.6596      595243.97      568.17305      595149.65      595519.92      595062.35     -327.70965      748.6808      -2059.942       5802.1908      6326.8867      12129.077      141587.9       41.368082      41.368082      82.736164          16040 
     87000   2824.2947      598966.94      575.6505       598545.06      600011.49      598344.28     -1292.0481      5105.3722      818.82431      5855.3375      6357.9571      12213.295      141527.2       41.362169      41.362169      82.724338          16040 
     88000   2806.9428      604141.34      583.12845      604832.56      603642.11      603949.35      891.55038     -2315.9176      928.29539      5819.3635      6444.0012      12263.365      141319.72      41.341947      41.341947      82.683893          16040 
     89000   2804.9087      598460.17      590.60638      600516.05      599061.14      595803.32     -1457.1254      2131.9407     -2305.0063      5815.1465      6333.6709      12148.817      141491.38      41.358679      41.358679      82.717358          16040 
     90000   2813.383       600788.5       598.08372      600762.04      600491.06      601112.39     -2051.9989     -1376.8476      1310.9932      5832.7154      6339.0628      12171.778      141423.74      41.352087      41.352087      82.704175          16040 
     91000   2787.0954      600418.89      605.56072      598111.36      602691.24      600454.06     -2135.0579      984.32384      4443.3775      5778.2159      6382.5977      12160.814      141443.79      41.354042      41.354042      82.708083          16040 
     92000   2840.2167      598326.62      613.03892      599520.24      599132.9       596326.71     -1191.1978      574.89598      4642.3143      5888.3471      6404.3316      12292.679      141544.43      41.363848      41.363848      82.727696          16040 
     93000   2789.3837      603398.77      620.51569      604626         603294.09      602276.22     -2913.4894     -727.89383     -417.35486      5782.9599      6436.2104      12219.17       141322.17      41.342186      41.342186      82.684372          16040 
     94000   2814.1847      596790.19      627.99428      597843.94      595793.23      596733.41     -840.29132     -1942.1601     -912.98927      5834.3776      6400.0523      12234.43       141591.09      41.368393      41.368393      82.736785          16040 
     95000   2788.723       599595.51      635.47379      599008.45      600800.69      598977.38     -2097.3644      4961.6101     -7.2981504      5781.5902      6390.8605      12172.451      141505.13      41.360019      41.360019      82.720038          16040 
     96000   2796.0992      603872.08      642.95222      603792.99      603229.03      604594.24      723.91335      490.28309     -2959.8614      5796.8825      6512.0037      12308.886      141328.64      41.342816      41.342816      82.685633          16040 
     97000   2770.7702      599910.02      650.43024      600378.73      600599.6       598751.73      203.20509      2403.1         716.56758      5744.3703      6343.9755      12088.346      141466.69      41.356274      41.356274      82.712547          16040 
     98000   2787.3608      600072.6       657.91021      599947.86      601300.27      598969.66     -677.45086     -1557.0122     -2326.8663      5778.7661      6427.3079      12206.074      141487.21      41.358273      41.358273      82.716545          16040 
     99000   2799.8736      600951.63      665.38956      602173.26      600109.25      600572.39      2066.5986     -545.98676     -1041.3766      5804.7077      6329.5354      12134.243      141467.11      41.356314      41.356314      82.712628          16040 
    100000   2776.5976      599121.16      672.87428      598756.9       598092.91      600513.66      2207.8083      2669.0054     -403.9262       5756.4519      6379.9968      12136.449      141486.08      41.358163      41.358163      82.716326          16040 
    101000   2801.3341      601212.49      680.35237      600833.84      600452.73      602350.89     -1857.8618      1598.3724     -2180.3368      5807.7356      6417.2072      12224.943      141437.96      41.353474      41.353474      82.706947          16040 
    102000   2756.729       589145.88      687.83233      587387.89      588836.31      591213.44     -21.385199     -1196.3807      1119.0507      5715.2601      6210.7055      11925.966      141774.18      41.386216      41.386216      82.772432          16040 
    103000   2792.7251      602315.46      695.31214      600263.93      602603.92      604078.54     -71.899186     -990.68966     -411.34942      5789.8873      6445.1005      12234.988      141386.85      41.348492      41.348492      82.696984          16040 
    104000   2819.4855      601112.8       702.78865      601234.65      602166.02      599937.73      2379.2352      684.25079     -1206.4864      5845.367       6356.3702      12201.737      141436.36      41.353318      41.353318      82.706636          16040 
    105000   2804.9563      598734.17      710.26451      599057.16      598850.06      598295.28      350.40421     -2522.409       2257.881       5815.2451      6394.2683      12209.513      141509.98      41.360492      41.360492      82.720983          16040 
    106000   2758.6171      602453.09      717.74009      603831.62      602167.61      601360.04      645.33718     -1080.82        2488.0547      5719.1745      6378.3837      12097.558      141418.19      41.351547      41.351547      82.703094          16040 
    107000   2809.726       597411.05      725.21634      594856.52      598719.98      598656.65     -2075.8908     -4514.7011     -2529.0409      5825.1337      6361.6315      12186.765      141558.46      41.365215      41.365215      82.730429          16040 
    108000   2782.6935      600653.43      732.69175      599777.21      601388.4       600794.69     -4658.6296     -1739.4116     -3597.1192      5769.0898      6407.7391      12176.829      141460.2       41.355641      41.355641      82.711283          16040 
    109000   2800.6412      605452.53      740.1673       606370.58      606479.96      603507.04      257.61107      2277.3199      3574.9621      5806.299       6408.8848      12215.184      141299.03      41.339929      41.339929      82.679858          16040 
    110000   2778.5675      592302.88      747.63998      592937.11      592412.38      591559.15     -1358.0593      2438.8053      25.107782      5760.5358      6251.1705      12011.706      141773.42      41.386142      41.386142      82.772284          16040 
    111000   2802.4125      602520.32      755.1136       601532.02      604623.16      601405.8       2247.8411      1178.968       1318.3712      5809.9712      6446.8585      12256.83       141389.1       41.348712      41.348712      82.697423          16040 
    112000   2771.3103      600365.17      762.5882       600683.31      598951.67      601460.52      3021.0256      1593.9499      2166.8372      5745.4901      6411.8733      12157.363      141465.25      41.356134      41.356134      82.712267          16040 
    113000   2805.1063      601349.16      770.06372      602085.09      600652.93      601309.45     -613.51176      3032.8504     -3599.7448      5815.5561      6425.1316      12240.688      141449.56      41.354604      41.354604      82.709207          16040 
    114000   2775.1927      599131.42      777.54076      599143.38      599166.59      599084.29     -1079.3128     -2139.5222      1243.9995      5753.5391      6371.3399      12124.879      141442.23      41.353889      41.353889      82.707779          16040 
    115000   2799.7686      598463.26      785.01586      598824.48      600660.99      595904.32     -2382.9326      2668.7389     -3645.2234      5804.49        6365.2808      12169.771      141541.21      41.363534      41.363534      82.727068          16040 
    116000   2818.1171      604821.06      792.49213      604940.82      605770.25      603752.11     -325.58528      470.32219      1976.9287      5842.5301      6369.5874      12212.118      141290.68      41.339115      41.339115      82.67823           16040 
    117000   2810.0909      597577.79      799.96947      597897.73      596200.16      598635.49     -560.58111     -586.55794      3845.3115      5825.8901      6390.3249      12216.215      141570.94      41.36643       41.36643       82.73286           16040 
    118000   2779.0267      598006.38      807.4457       599871.56      596077.11      598070.47     -3292.0998      907.52642     -1379.0453      5761.4878      6364.2441      12125.732      141511.25      41.360615      41.360615      82.72123           16040 
    119000   2795.5614      601598.23      814.92216      601107.02      603366.16      600321.52      366.87191     -2473.3009     -519.33553      5795.7677      6431.5069      12227.275      141386.7       41.348477      41.348477      82.696954          16040 
    120000   2794.2437      597883.09      822.39841      598482.46      597957.25      597209.56     -285.92378     -340.13133     -1573.083       5793.0357      6318.1142      12111.15       141493.9       41.358925      41.358925      82.71785           16040 
    121000   2804.461       599986.01      829.87493      598668.23      600060.89      601228.92      1437.2854      1624.6908     -3754.3621      5814.2182      6322.4329      12136.651      141507.59      41.360258      41.360258      82.720517          16040 
    122000   2803.929       601176.26      837.3473       600900.26      600210.05      602418.49     -2325.6422      1934.2838     -651.47868      5813.1152      6461.8489      12274.964      141429.73      41.352671      41.352671      82.705343          16040 
    123000   2801.4205      593664.8       844.82576      593299.5       594000.32      593694.58      2862.546       1186.5434      328.32913      5807.9147      6271.4429      12079.358      141672.26      41.376296      41.376296      82.752592          16040 
    124000   2808.073       606949.07      852.3004       606684.89      608508.59      605653.72     -1275.8706      1587.4238     -865.77303      5821.7066      6480.2675      12301.974      141276.55      41.337737      41.337737      82.675473          16040 
    125000   2795.9531      597431.04      859.77325      597782.88      598394.34      596115.92      557.99388     -896.67168      3894.3117      5796.5796      6382.4859      12179.066      141599.41      41.369203      41.369203      82.738406          16040 
    126000   2781.4939      598577.88      867.24588      598761.67      598593.45      598378.51     -2197.9357     -555.08427     -1784.0548      5766.6029      6366.8084      12133.411      141553.21      41.364703      41.364703      82.729406          16040 
    127000   2821.1517      600123.6       874.71843      599266.22      601610.77      599493.8      -1299.0783     -1663.4053     -2200.5057      5848.8215      6362.2805      12211.102      141501.17      41.359633      41.359633      82.719266          16040 
    128000   2803.4577      599837.37      882.19392      600127.28      599586.11      599798.73     -769.49679     -1152.8563     -962.2061       5812.1382      6369.5484      12181.687      141503.6       41.35987       41.35987       82.71974           16040 
    129000   2801.7819      601902.81      889.6671       601893.68      603188.49      600626.25     -2096.1618     -307.5016      -2535.3294      5808.664       6392.1197      12200.784      141378.99      41.347725      41.347725      82.695451          16040 
    130000   2781.4838      594449.79      897.14097      595459.81      594264.35      593625.21      1125.0357      52.280674      2820.3803      5766.5818      6287.2659      12053.848      141650.64      41.374191      41.374191      82.748382          16040 
    131000   2807.4552      604749.93      904.61292      603497.03      604717.61      606035.15     -2360.8149     -2126.1896      2017.5403      5820.4258      6421.5229      12241.949      141305.98      41.340607      41.340607      82.681214          16040 
    132000   2819.948       601715.77      912.08708      600457.77      601511.43      603178.1      -3515.6555     -863.72654      586.00406      5846.326       6374.7534      12221.079      141428.98      41.352598      41.352598      82.705197          16040 
    133000   2785.1568      598086.15      919.56095      596653.71      598094.65      599510.07     -533.25729     -2726.9463      4822.7915      5774.1967      6337.4641      12111.661      141525.3       41.361984      41.361984      82.723968          16040 
    134000   2820.0244      601469.92      927.03547      600743.15      602541.95      601124.65     -2549.4444      975.47949     -2755.4498      5846.4844      6401.5686      12248.053      141411.5       41.350895      41.350895      82.70179           16040 
    135000   2763.1156      598532.37      934.51172      597540.62      598557.09      599499.41      1063.6225     -54.885206     -745.6829       5728.5008      6346.2841      12074.785      141504.34      41.359942      41.359942      82.719885          16040 
    136000   2777.3353      601317.28      941.9871       600871.12      600456.17      602624.54     -2502.28        73.252707      2870.2282      5757.9812      6398.4539      12156.435      141464.36      41.356046      41.356046      82.712092          16040 
    137000   2787.0323      603580.93      949.46158      603738.28      604480.01      602524.52      428.78431     -1669.2626      180.07537      5778.0849      6425.7009      12203.786      141350.96      41.344993      41.344993      82.689986          16040 
    138000   2795.8081      595076.47      956.93472      595363.03      595124.04      594742.32     -1070.9376     -3298.6667     -2024.7512      5796.279       6330.977       12127.256      141650.59      41.374186      41.374186      82.748372          16040 
    139000   2772.2858      604127.43      964.41004      603752.46      604118.88      604510.95     -255.07333      544.89911     -743.75287      5747.5124      6377.304       12124.816      141329.68      41.342918      41.342918      82.685836          16040 
    140000   2820.1621      601661.95      971.88177      603275.39      600703.2       601007.25     -1758.4036      2405.8665     -4217.4562      5846.7698      6381.0719      12227.842      141465.62      41.356169      41.356169      82.712338          16040 
    141000   2800.1207      594756.81      979.35605      592667.04      596237.34      595366.04     -2879.7762     -898.55151      4237.2495      5805.2199      6206.0978      12011.318      141680.09      41.377058      41.377058      82.754116          16040 
    142000   2801.9141      603239.04      986.82749      603516.59      603699.86      602500.66      1377.656      -1678.5632     -2198.8494      5808.938       6356.5602      12165.498      141353.84      41.345274      41.345274      82.690548          16040 
    143000   2805.3394      600131.62      994.29941      599794.26      599663.58      600937.03     -17.474288     -1410.7732     -3.7382456      5816.0393      6406.6526      12222.692      141493.24      41.358861      41.358861      82.717722          16040 
    144000   2803.5991      598054.09      1001.7714      598317.72      597402.85      598441.71      325.6774      -2176.034      -1918.003       5812.4314      6309.8246      12122.256      141568.03      41.366146      41.366146      82.732293          16040 
    145000   2764.9146      605619.38      1009.2435      604205.76      607049.14      605603.24      145.18966     -1250.2599      232.44841      5732.2306      6379.4279      12111.658      141245.23      41.334681      41.334681      82.669363          16040 
    146000   2795.2112      592121.11      1016.7173      591674.19      591318.48      593370.65      3118.3756      1779.9606      1996.6621      5795.0416      6287.5832      12082.625      141766.55      41.385473      41.385473      82.770947          16040 
    147000   2804.115       598427.07      1024.1883      598125.65      598067.71      599087.85      1062.0226     -161.90409     -2054.5396      5813.5009      6306.737       12120.238      141526.99      41.362149      41.362149      82.724297          16040 
    148000   2796.3612      600327.86      1031.6596      599946.77      601966.21      599070.59      758.11075     -399.21839      105.05903      5797.4258      6353.9029      12151.329      141490.57      41.3586        41.3586        82.717201          16040 
    149000   2793.7095      599328.76      1039.1324      596924.33      601767.37      599294.57     -1087.6268      2085.8228     -1678.6733      5791.9282      6293.7531      12085.681      141482.5       41.357814      41.357814      82.715628          16040 
    150000   2800.074       603047.32      1046.6045      603398.49      604462.51      601280.95      3507.6166      4632.5264      5190.201       5805.1231      6343.5683      12148.691      141353.12      41.345204      41.345204      82.690408          16040 
    151000   2800.3322      598560.66      1054.0781      597424.64      598131.25      600126.1      -2670.5857      1232.2         162.24883      5805.6583      6337.5674      12143.226      141483.25      41.357887      41.357887      82.715775          16040 
    152000   2747.3077      593152.26      1061.5521      592236.16      594414.75      592805.86      2381.1702     -1223.744       1913.2251      5695.7279      6273.7689      11969.497      141672.56      41.376325      41.376325      82.75265           16040 
    153000   2821.4822      607303.11      1069.0253      606671.96      607808.05      607429.33     -2743.6248     -1422.7888      2608.0825      5849.5066      6440.6486      12290.155      141233.9       41.333576      41.333576      82.667152          16040 
    154000   2787.8412      599277.09      1076.4998      598348.75      600513.99      598968.54     -1717.9343     -1631.3042     -817.27487      5779.762       6324.0998      12103.862      141500.37      41.359555      41.359555      82.719111          16040 
    155000   2808.3551      599543.1       1083.9762      599112.77      599777.11      599739.43     -1624.5859      2777.0974      4984.1511      5822.2916      6242.1201      12064.412      141505.69      41.360074      41.360074      82.720147          16040 
    156000   2812.541       602224.5       1091.4512      603353.67      602372.82      600947         5113.9895      1972.7259      1903.6577      5830.9698      6337.9807      12168.951      141372.85      41.347127      41.347127      82.694253          16040 
    157000   2787.8669      599534.2       1098.9232      601751.72      597378.39      599472.48     -903.52324     -700.32087     -1835.4943      5779.8152      6356.7039      12136.519      141500.59      41.359577      41.359577      82.719154          16040 
    158000   2829.7385      597489.73      1106.401       597870.73      598245.21      596353.23     -2982.3428     -210.11318      494.42845      5866.6236      6310.9269      12177.551      141587.5       41.368043      41.368043      82.736086          16040 
    159000   2800.8612      606075.97      1113.8776      606349.24      605682.79      606195.88     -2020.0276      3446.6859     -167.61438      5806.7552      6373.8158      12180.571      141259.44      41.336068      41.336068      82.672136          16040 
    160000   2844.775       595392.53      1121.3518      592610.38      596152.72      597414.47     -803.27         2386.241       1013.5757      5897.7973      6185.9383      12083.736      141686.88      41.377719      41.377719      82.755439          16040 
    161000   2818.0836      599853.62      1128.8266      598825.91      600804.15      599930.8      -1672.9304      488.16704      879.98248      5842.4607      6346.5838      12189.044      141497.18      41.359245      41.359245      82.718489          16040 
    162000   2791.2001      602508.38      1136.303       603104.05      602666.69      601754.39     -969.14586      639.97468     -172.51222      5786.7258      6352.5864      12139.312      141392.78      41.34907       41.34907       82.69814           16040 
    163000   2815.9071      597831.13      1143.7789      596412.34      598820.68      598260.37     -1033.0569      603.34168     -1934.5973      5837.9483      6353.6806      12191.629      141555.99      41.364974      41.364974      82.729947          16040 
    164000   2798.7768      601368.02      1151.2571      601827.11      600375.16      601901.8       242.44149      837.29091      408.12332      5802.4337      6368.0227      12170.456      141404.34      41.350197      41.350197      82.700394          16040 
    165000   2806.1764      601475.79      1158.7354      600997.4       600686.12      602743.85      634.32001      3510.8819     -1673.3385      5817.7747      6435.4688      12253.243      141423.51      41.352065      41.352065      82.70413           16040 
    166000   2774.3283      592316.61      1166.2126      590819.91      592509.06      593620.86     -273.5074      -3787.2314      641.31381      5751.747       6244.9045      11996.652      141699.23      41.378921      41.378921      82.757842          16040 
    167000   2818.6512      604955.15      1173.6913      605329.51      603466.93      606069         2316.8349      84.988043      968.11111      5843.6374      6425.6191      12269.257      141316.91      41.341673      41.341673      82.683346          16040 
    168000   2801.277       598956.31      1181.1683      599182.77      598526.74      599159.4      -275.21649      1766.5849     -568.01335      5807.6172      6318.4642      12126.081      141491.72      41.358713      41.358713      82.717426          16040 
    169000   2815.4481      597762.36      1188.6443      597201.3       600188.93      595896.84     -2620.6969      9.8862704      5847.8787      5836.9967      6390.4634      12227.46       141534.78      41.362908      41.362908      82.725815          16040 
    170000   2789.6233      602390.42      1196.1217      603097.82      602137.21      601936.22      315.42745     -1408.5795      49.770063      5783.4567      6394.7856      12178.242      141372.19      41.347063      41.347063      82.694126          16040 
    171000   2791.0498      599230.44      1203.5988      599067.65      600203.03      598420.65     -75.576971     -1950.6385     -626.56009      5786.4141      6329.6106      12116.025      141537.41      41.363164      41.363164      82.726328          16040 
    172000   2841.7984      604652.28      1211.077       603453.42      605850.62      604652.79      205.04112      504.94381      39.70049       5891.6262      6356.2786      12247.905      141318.99      41.341876      41.341876      82.683751          16040 
    173000   2780.4228      595398.17      1218.5543      595595.53      595885.19      594713.79     -209.92189     -6010.7152      1594.4641      5764.3823      6243.3116      12007.694      141592.27      41.368507      41.368507      82.737014          16040 
    174000   2791.241       597639         1226.0342      597407.17      597736.85      597772.99     -1127.5861     -1832.3463      1344.3644      5786.8106      6305.1873      12091.998      141537.69      41.363191      41.363191      82.726381          16040 
    175000   2799.6137      602595.87      1233.5128      602528.15      604568.98      600690.47      2405.6797     -1942.8441      1249.793       5804.1689      6478.0794      12282.248      141404.81      41.350243      41.350243      82.700486          16040 
    176000   2796.6737      601200.51      1240.9948      600772.37      602214.23      600614.94     -4712.3666     -184.72948      824.76294      5798.0737      6323.959       12122.033      141433.72      41.35306       41.35306       82.706121          16040 
    177000   2796.5936      599406.36      1248.4736      598078.36      598313.66      601827.05      1757.158      -1297.46        3517.0742      5797.9076      6295.1213      12093.029      141499.88      41.359507      41.359507      82.719014          16040 
    178000   2803.4194      599960.88      1255.9529      600655.93      600099.21      599127.52      1082.2028     -474.93496      430.86903      5812.0588      6228.0717      12040.131      141474.28      41.357013      41.357013      82.714026          16040 
    179000   2785.7271      604309.12      1263.429       604299.33      603252.8       605375.22      2188.4111      802.57676     -1587.3289      5775.3791      6418.4259      12193.805      141364.94      41.346356      41.346356      82.692711          16040 
    180000   2767.1189      592884.4       1270.9101      592821.33      591667.87      594163.99      3005.0649      362.39458     -2095.0004      5736.8004      6231.7792      11968.58       141708.32      41.379807      41.379807      82.759613          16040 
    181000   2787.3432      603820.68      1278.3892      604237.16      603716.09      603508.81      786.1602       1088.326       1561.7198      5778.7296      6464.6646      12243.394      141302.47      41.340265      41.340265      82.68053           16040 
    182000   2808.1894      599221.93      1285.8677      599110.21      598691.41      599864.17     -1182.4345     -1696.5519     -188.35201      5821.948       6325.9006      12147.849      141433.05      41.352995      41.352995      82.70599           16040 
    183000   2790.9434      597000.27      1293.3501      597297.16      596591.59      597112.08     -998.90513      964.54851      397.60953      5786.1934      6294.6598      12080.853      141550.73      41.364462      41.364462      82.728923          16040 
    184000   2826.0027      602188.05      1300.829       601531.21      602432.66      602600.28      1061.3279      1689.8527     -1715.5856      5858.8786      6353.1826      12212.061      141409.56      41.350706      41.350706      82.701412          16040 
    185000   2787.7048      599017.17      1308.305       598496.35      599996.68      598558.48     -774.01608     -1699.9823     -2129.2673      5779.4792      6395.3317      12174.811      141513.76      41.36086       41.36086       82.721721          16040 
    186000   2782.9847      595994.62      1315.7818      596554.74      594627.57      596801.57     -3701.4153      574.48665      2713.9132      5769.6934      6370.8176      12140.511      141565.53      41.365903      41.365903      82.731806          16040 
    187000   2794.818       605030.42      1323.2602      605450.9       604836.03      604804.34     -708.29127      2273.5531     -1228.7547      5794.2264      6430.0573      12224.284      141242.12      41.334378      41.334378      82.668756          16040 
    188000   2802.2896      594088.78      1330.7374      593940.23      594908.95      593417.17     -2161.0891     -2373.7713      706.53413      5809.7165      6247.5618      12057.278      141659.69      41.375072      41.375072      82.750145          16040 
    189000   2801.4581      601717.31      1338.2108      602499.97      601274.86      601377.1       714.77262     -575.2838       3371.1151      5807.9927      6391.5614      12199.554      141442.44      41.35391       41.35391       82.707821          16040 
    190000   2787.0765      602498.82      1345.6848      601359.29      602001.46      604135.71      257.94492      59.497512     -639.42358      5778.1767      6343.052       12121.229      141345.21      41.344432      41.344432      82.688864          16040 
    191000   2808.5377      596177.93      1353.1595      596244.98      596240.48      596048.32      1702.9025      249.466       -3026.221       5822.6701      6276.7611      12099.431      141604.41      41.369689      41.369689      82.739378          16040 
    192000   2772.4719      602538.66      1360.6359      604167.59      601888.98      601559.41     -2873.9669     -1044.7568      1296.1228      5747.8984      6356.5429      12104.441      141367.66      41.346621      41.346621      82.693242          16040 
    193000   2812.9607      601141.62      1368.1144      600840.22      600999.3       601585.34      36.226659      164.56481      798.60054      5831.8398      6380.932       12212.772      141448.7       41.35452       41.35452       82.709041          16040 
    194000   2794.4387      592819.71      1375.5933      592353.13      593114.72      592991.29      17.928994      196.8583      -1011.0223      5793.4399      6266.377       12059.817      141672.84      41.376352      41.376352      82.752704          16040 
    195000   2796.2253      603294.21      1383.0713      602808.9       605693.76      601379.99     -440.33787      567.83626     -4071.759       5797.1439      6389.7759      12186.92       141341.82      41.344102      41.344102      82.688204          16040 
    196000   2771.2672      599099.2       1390.5504      598527.31      600267.92      598502.38      1528.2419      1031.3408     -1394.8905      5745.4008      6359.0021      12104.403      141479.02      41.357475      41.357475      82.71495           16040 
    197000   2772.6201      595479.28      1398.0289      593562.76      595939.65      596935.45      1366.0827     -618.85617      1808.1985      5748.2056      6267.4425      12015.648      141596.42      41.368912      41.368912      82.737823          16040 
    198000   2814.2443      602638.43      1405.5075      602938.18      602462.53      602514.57     -887.80933      2759.2162      1763.2885      5834.501       6355.6985      12190.199      141378.2       41.347648      41.347648      82.695296          16040 
    199000   2791.5247      596256.01      1412.9863      597655.49      594799.85      596312.7      -482.64607      300.45589     -293.24229      5787.3987      6287.7333      12075.132      141565.62      41.365912      41.365912      82.731823          16040 
    200000   2798.6142      596949.58      1420.4694      597288.99      598303.75      595256.01      397.57249     -480.234       -2209.9508      5802.0968      6284.9263      12087.023      141573.98      41.366726      41.366726      82.733452          16040 
    201000   2794.2145      606585.75      1427.9475      605354.85      607836.79      606565.61      3057.8998      980.15407      1134.1044      5792.9751      6452.3406      12245.316      141290.08      41.339056      41.339056      82.678112          16040 
    202000   2779.6566      596623.12      1435.4249      598173.17      596384.01      595312.17     -1257.4377     -1574.6578     -1907.11        5762.7937      6316.3794      12079.173      141617.25      41.37094       41.37094       82.741879          16040 
    203000   2801.7185      601429.66      1442.9042      600783.18      603531.69      599974.12     -2273.1972     -1314.3801      1551.5158      5808.5324      6380.4871      12189.019      141486.34      41.358188      41.358188      82.716376          16040 
    204000   2759.414       601683.14      1450.3832      599943.94      602843.8       602261.7      -1961.6835      1458.1993     -2117.0585      5720.8267      6318.8316      12039.658      141382.23      41.348042      41.348042      82.696083          16040 
    205000   2802.1594      593983.48      1457.8624      592590.73      594710.57      594649.13      3431.9472     -2212.8399      984.66662      5809.4467      6272.9905      12082.437      141708.01      41.379776      41.379776      82.759552          16040 
    206000   2816.2426      602380.7       1465.3378      601331.67      601642.27      604168.15     -2786.8582      2058.3724     -446.84996      5838.6438      6304.1357      12142.78       141386.33      41.348441      41.348441      82.696882          16040 
    207000   2818.5467      601852         1472.8145      602025.23      601644.48      601886.3      -2494.6108     -1796.3566     -691.19857      5843.4207      6290.6674      12134.088      141418.12      41.35154       41.35154       82.70308           16040 
    208000   2808.0712      599375         1480.287       597586.48      600324.21      600214.32      1517.573       28.667712      2095.2431      5821.7029      6298.6834      12120.386      141486.29      41.358183      41.358183      82.716367          16040 
    209000   2804.9803      594709.26      1487.7638      593578.43      596106.56      594442.79     -308.88366     -1813.5153      409.24276      5815.2949      6243.7624      12059.057      141632.26      41.372402      41.372402      82.744804          16040 
    210000   2837.2416      601142.12      1495.2393      601708.5       601948.89      599768.98     -5490.4936      299.37405     -1006.4842      5882.1791      6402.6033      12284.782      141436.38      41.35332       41.35332       82.70664           16040 
    211000   2776.3051      603796.78      1502.7105      602540.31      603019.23      605830.81     -1259.1996     -1253.8985     -48.729366      5755.8454      6375.4384      12131.284      141322.84      41.342251      41.342251      82.684502          16040 
    212000   2810.5747      595994.76      1510.1878      595083.07      596469.13      596432.08      101.43434      3.0204687      2212.4837      5826.8931      6297.4703      12124.363      141680.02      41.377051      41.377051      82.754103          16040 
    213000   2799.7565      601645.63      1517.6666      600430.19      600727.22      603779.5      -1446.3612     -2883.2822      143.10335      5804.4649      6303.2913      12107.756      141378.77      41.347704      41.347704      82.695408          16040 
    214000   2809.583       599696.27      1525.148       599418.53      599278.7       600391.58      1583.9318      1931.1528      1282.1041      5824.8372      6368.7427      12193.58       141451.85      41.354828      41.354828      82.709655          16040 
    215000   2805.0356      598411.5       1532.6243      598772.17      597391.35      599071         2244.6014      471.21362      1063.9831      5815.4096      6278.7775      12094.187      141520.79      41.361545      41.361545      82.72309           16040 
    216000   2834.9779      600834.5       1540.1003      599835.81      600601.47      602066.2       1351.3103      1886.8951     -1857.9068      5877.4859      6339.9206      12217.407      141467.07      41.35631       41.35631       82.712621          16040 
    217000   2771.9411      600916.62      1547.5719      601703.58      599797.41      601248.89      1532.2958     -812.70898     -540.2624       5746.7978      6385.2718      12132.07       141408.77      41.350628      41.350628      82.701257          16040 
    218000   2830.1712      599175.69      1555.0468      596773.24      600358.2       600395.62     -2871.9027      337.28827      2559.7179      5867.5207      6330.8841      12198.405      141488.66      41.358415      41.358415      82.716829          16040 
    219000   2785.1957      599776.3       1562.5254      600080.91      598133.08      601114.92     -74.078887     -1006.1127      1037.4762      5774.2775      6304.0881      12078.366      141477.09      41.357287      41.357287      82.714575          16040 
    220000   2812.4533      604318.3       1569.9966      604461.01      604191.29      604302.61     -694.636       -1363.3645     -1160.5433      5830.7879      6396.1741      12226.962      141347.37      41.344643      41.344643      82.689286          16040 
    221000   2780.774       595377.35      1577.4717      594994.66      595499.29      595638.09     -1271.1255      769.57046     -596.41788      5765.1104      6248.6125      12013.723      141641.07      41.373259      41.373259      82.746518          16040 
    222000   2812.7801      603018.12      1584.9468      603002.74      603578.25      602473.38     -2129.6607      2946.0987      3312.9363      5831.4654      6365.9146      12197.38       141357.38      41.345619      41.345619      82.691237          16040 
    223000   2770.6655      599051.51      1592.4228      598388.5       598583.54      600182.5      -3068.7548      2648.2256      1677.511       5744.1534      6244.1344      11988.288      141394.55      41.349242      41.349242      82.698484          16040 
    224000   2792.5009      596433.48      1599.8974      596634.82      595481.31      597184.3       1621.2208      1502.2604     -1873.402       5789.4225      6324.3397      12113.762      141554.67      41.364845      41.364845      82.729691          16040 
    225000   2799.8015      600581.16      1607.3711      600707.84      602455.46      598580.18      2248.8973      131.11268     -2683.3539      5804.5583      6389.3796      12193.938      141420.46      41.351768      41.351768      82.703536          16040 
    226000   2817.9698      599718.02      1614.8416      600460.6       600511.11      598182.34      2401.1385     -832.59809      780.18781      5842.2247      6283.772       12125.997      141467.86      41.356387      41.356387      82.712774          16040 
    227000   2818.8555      598582.98      1622.3149      598313.01      599164.63      598271.3      -2952.6831     -218.63335      2920.5539      5844.0609      6340.9134      12184.974      141526.99      41.362148      41.362148      82.724297          16040 
    228000   2770.8062      598138.68      1629.7858      598938.88      600291.68      595185.47      1614.5565      570.12103      256.46609      5744.445       6353.3088      12097.754      141498.01      41.359326      41.359326      82.718651          16040 
    229000   2813.4619      600862.51      1637.257       600267.78      601760.4       600559.35      323.66315      3470.5773      2427.8571      5832.879       6343.6775      12176.557      141439.51      41.353625      41.353625      82.70725           16040 
    230000   2804.4209      600285.14      1644.7316      598569.18      600119.42      602166.83      2324.5329      2248.7819     -2828.6293      5814.1352      6323.9921      12138.127      141482.8       41.357844      41.357844      82.715687          16040 
    231000   2759.5576      597818.88      1652.2045      597242.91      597146.71      599067.03     -2066.201      -1657.718      -1341.1817      5721.1244      6318.4213      12039.546      141492.48      41.358786      41.358786      82.717572          16040 
    232000   2831.7617      602147.34      1659.6737      601575.13      601497.73      603369.15      4736.3565      763.3135       633.90023      5870.8182      6326.0361      12196.854      141404.57      41.350219      41.350219      82.700439          16040 
    233000   2814.8224      597525.3       1667.144       596967.86      598563.96      597044.08     -3211.4625     -251.90957      658.94719      5835.6996      6265.3509      12101.051      141569.97      41.366335      41.366335      82.73267           16040 
    234000   2810.6612      598066.53      1674.6155      596900.4       598587.29      598711.9       2064.7274     -2378.4471      1946.9849      5827.0725      6298.7075      12125.78       141520.75      41.361541      41.361541      82.723082          16040 
    235000   2817.4425      602506.56      1682.087       602028.7       602462.85      603028.14     -25.818228      1177.5043     -555.50009      5841.1316      6362.2607      12203.392      141429.58      41.352657      41.352657      82.705314          16040 
    236000   2772.2737      598299.82      1689.5585      600123.78      598369.54      596406.15      1157.8474      696.93768     -3537.6578      5747.4874      6276.1169      12023.604      141500.28      41.359547      41.359547      82.719093          16040 
    237000   2819.456       602918.78      1697.0319      602317.43      603960.5       602478.41     -2026.0507     -2335.9337     -1992.8184      5845.306       6361.4124      12206.718      141392.06      41.348999      41.348999      82.697999          16040 
    238000   2808.2121      601982.3       1704.5057      603347.15      600698.88      601900.87     -1647.9234      170.63743      1582.7763      5821.9951      6324.9864      12146.981      141370.3       41.346879      41.346879      82.693757          16040 
    239000   2817.9559      595921.35      1711.98        597849.06      597208.46      592706.54      3884.636       1147.4282      4221.5092      5842.196       6312.8751      12155.071      141615.9       41.370808      41.370808      82.741617          16040 
    240000   2841.1369      608165.44      1719.4543      608719.82      607929.6       607846.9      -2532.8221      1609.5769     -2156.2761      5890.2549      6450.9345      12341.189      141213.09      41.331546      41.331546      82.663093          16040 
    241000   2794.7115      601503.29      1726.9284      602407.97      601414         600687.91      2166.6119      3959.6582      1428.1803      5794.0056      6367.5178      12161.523      141396.3       41.349413      41.349413      82.698827          16040 
    242000   2792.7705      595934.85      1734.4019      594594.17      596604.89      596605.5       5389.8654      1973.7525      875.82341      5789.9814      6243.3634      12033.345      141576.4       41.366961      41.366961      82.733922          16040 
    243000   2774.3755      602458.38      1741.8729      602747.44      602353.63      602274.06     -1387.1875      1008.6537     -943.85575      5751.8449      6419.9895      12171.834      141370.95      41.346941      41.346941      82.693883          16040 
    244000   2800.7948      598989.92      1749.3473      598238.61      601646.68      597084.46     -1122.7111     -1783.9088     -2660.1386      5806.6175      6324.7996      12131.417      141513.07      41.360793      41.360793      82.721585          16040 
    245000   2771.0512      598419.24      1756.8224      599591.14      597669.86      597996.71      444.40396     -1119.1286      1188.0461      5744.9529      6321.4795      12066.432      141487.67      41.358318      41.358318      82.716636          16040 
    246000   2803.4957      608337.17      1764.2938      608162.87      608078.12      608770.52      1266.0406      258.47798     -457.69088      5812.217       6476.5403      12288.757      141192.25      41.329513      41.329513      82.659025          16040 
    247000   2746.5755      595899.04      1771.7624      595863.04      595813.37      596020.72      726.16716     -1383.1056      1495.9751      5694.2099      6266.3869      11960.597      141625.19      41.371713      41.371713      82.743426          16040 
    248000   2820.732       600835.61      1779.2335      601669.67      599321.03      601516.14     -783.0175       2363.0935     -1131.8626      5847.9514      6285.6313      12133.583      141453         41.354939      41.354939      82.709878          16040 
    249000   2760.7471      601030.48      1786.7053      601368.38      601216.81      600506.24     -23.765216      134.04554     -1697.5598      5723.5904      6285.7141      12009.304      141392.12      41.349005      41.349005      82.69801           16040 
    250000   2785.0443      597426.94      1794.1755      596866.5       598992.1       596422.22      1947.4866     -84.737061      2067.0988      5773.9634      6316.8417      12090.805      141506.15      41.360118      41.360118      82.720237          16040 
    251000   2778.5066      603843.82      1801.6454      603618.79      605603.79      602308.87     -585.21547     -347.9184       2093.6203      5760.4095      6397.5804      12157.99       141314.33      41.341421      41.341421      82.682842          16040 
    252000   2796.3039      598366.23      1809.1185      598337.57      598561.57      598199.56     -1269.8012      479.54747      5002.1738      5797.307       6290.7864      12088.093      141510         41.360494      41.360494      82.720988          16040 
    253000   2771.29        597403.28      1816.5912      597247.6       597733.1       597229.13     -4086.4939     -170.49355     -996.75463      5745.4479      6216.1697      11961.618      141520.1       41.361478      41.361478      82.722956          16040 
    254000   2802.1416      603430.07      1824.0636      603155.84      602597.1       604537.26      15.943436     -191.04543     -2597.0445      5809.4097      6384.5417      12193.951      141318.66      41.341843      41.341843      82.683686          16040 
    255000   2808.6606      596723.27      1831.5365      597059.72      597254.78      595855.31      2313.6441     -2055.275      -49.054377      5822.9248      6315.7123      12138.637      141595.55      41.368827      41.368827      82.737653          16040 
    256000   2795.4661      601070.65      1839.0089      600370.8       600639.54      602201.62      1534.4711      2114.2614     -1243.3314      5795.5701      6302.3683      12097.938      141404.2       41.350184      41.350184      82.700367          16040 
    257000   2781.6148      600611.37      1846.4812      597774.53      600365.5       603694.08      1445.7943      69.916374     -3230.5359      5766.8535      6352.8849      12119.738      141446.04      41.354261      41.354261      82.708521          16040 
    258000   2807.6251      596813.16      1853.9536      596406.57      595452.87      598580.06     -2724.0246      673.19706      1023.7877      5820.7782      6284.953       12105.731      141509.16      41.360412      41.360412      82.720824          16040 
    259000   2822.5379      603861.86      1861.4269      602397.86      604338.16      604849.56     -2830.6122     -679.20214      733.74456      5851.6953      6387.7788      12239.474      141364.3       41.346294      41.346294      82.692588          16040 
    260000   2791.088       598546.17      1868.8956      598746.48      598477.01      598415.03     -3324.5855      1132.2715     -196.60698      5786.4932      6317.1754      12103.669      141502.46      41.359759      41.359759      82.719518          16040 
    261000   2813.3287      596539.1       1876.3684      596201.01      595986.53      597429.76     -2714.6628      134.47009     -454.36622      5832.6029      6289.2438      12121.847      141609.51      41.370186      41.370186      82.740371          16040 
    262000   2807.0603      607429.57      1883.8415      608487.4       607560.15      606241.16      1694.1108      812.285       -288.25424      5819.6072      6333.8715      12153.479      141201.78      41.330443      41.330443      82.660886          16040 
    263000   2794.9817      596149.67      1891.313       595032.55      597715.05      595701.4      -2083.9437     -3280.58        1926.7772      5794.5658      6311.0683      12105.634      141646.32      41.37377       41.37377       82.747541          16040 
    264000   2819.1872      599217.45      1898.784       598408.4       600181.38      599062.57     -1368.7479      2802.386      -2153.1277      5844.7486      6292.2498      12136.998      141476.65      41.357244      41.357244      82.714489          16040 
    265000   2774.166       601615.21      1906.2546      601612.8       601320.31      601912.52     -1355.8425      620.58323      130.47145      5751.4107      6335.5226      12086.933      141360.82      41.345954      41.345954      82.691908          16040 
    266000   2842.6811      597189.71      1913.7261      597803.72      596690.52      597074.88      2358.0517      3079.4827      1308.7768      5893.4563      6247.3137      12140.77       141583.94      41.367696      41.367696      82.735392          16040 
    267000   2774.4557      597224.71      1921.1953      596142.41      597810.27      597721.46     -894.22712      2778.5801      753.85462      5752.0112      6232.4118      11984.423      141460.61      41.355681      41.355681      82.711362          16040 
    268000   2817.7181      609097.87      1928.6653      608994.91      609614.03      608684.67      451.87538      2248.257       394.55468      5841.7029      6420.3119      12262.015      141193.13      41.329599      41.329599      82.659198          16040 
    269000   2810.5864      595877.38      1936.1349      595198.95      595825.43      596607.76      521.20584     -2546.775      -1996.6675      5826.9176      6223.7698      12050.687      141654.87      41.374603      41.374603      82.749205          16040 
    270000   2823.6365      601804.07      1943.6058      602123.5       601154.05      602134.67     -980.19395      552.56437      3312.4455      5853.973       6354.3752      12208.348      141387.3       41.348536      41.348536      82.697072          16040 
    271000   2787.2015      599532.07      1951.0752      598814         599992.32      599789.88     -1563.6662      224.67901     -5458.5217      5778.4358      6330.319       12108.755      141441.82      41.35385       41.35385       82.7077            16040 
    272000   2843.5609      596658.98      1958.5496      596568.73      596830.74      596577.46     -2411.9522      3276.6025     -423.69347      5895.2803      6266.2826      12161.563      141585.46      41.367844      41.367844      82.735688          16040 
    273000   2811.268       608196.82      1966.0233      608015.65      606533.15      610041.67      443.39555      661.58743     -1220.359       5828.3306      6435.36        12263.691      141158.56      41.326226      41.326226      82.652451          16040 
    274000   2781.875       596249.02      1973.4972      595672.85      597369.33      595704.88     -3264.1007     -2103.7438     -1935.435       5767.3929      6193.5333      11960.926      141589.67      41.368254      41.368254      82.736508          16040 
    275000   2805.2144      600721.17      1980.9719      602148.63      599055.83      600959.05     -3833.3501     -1730.3076      232.85784      5815.7801      6349.6659      12165.446      141413.69      41.351108      41.351108      82.702216          16040 
    276000   2818.0806      600830.98      1988.4435      599510.18      600784.87      602197.89     -2076.2878     -1247.1192      430.13939      5842.4545      6382.801       12225.255      141434.31      41.353118      41.353118      82.706237          16040 
    277000   2769.7989      598694.72      1995.9178      598117.13      599035.71      598931.33      683.8812       1671.6527     -2085.1669      5742.3566      6325.0718      12067.428      141493.27      41.358863      41.358863      82.717726          16040 
    278000   2820.8457      601815.34      2003.3903      602239.18      601830.45      601376.37      1368.2761      1439.0683     -740.52115      5848.1871      6392.7914      12240.978      141427.7       41.352474      41.352474      82.704947          16040 
    279000   2810.4985      603007.96      2010.8607      602932.31      602382.94      603708.64      3037.5856      2385.9732      1750.2537      5826.7352      6291.2691      12118.004      141313.59      41.341349      41.341349      82.682698          16040 
    280000   2794.7284      595352.65      2018.3343      593984.78      597871.15      594202.01      60.7805       -904.8401      -4592.9102      5794.0407      6242.6093      12036.65       141613.55      41.37058       41.37058       82.74116           16040 
    281000   2822.0271      599725.25      2025.8045      598512.97      600562.4       600100.39     -2044.0446      1251.7091     -1113.1219      5850.6364      6273.0516      12123.688      141439.12      41.353587      41.353587      82.707174          16040 
    282000   2811.5349      599759.37      2033.2761      598827.48      600650.29      599800.34      2303.9858      1152.1596      1666.0301      5828.884       6351.6316      12180.516      141479.32      41.357504      41.357504      82.715009          16040 
    283000   2809.4237      598357.27      2040.7484      598187.66      597455.18      599428.96      2896.6874     -380.84654     -1402.5708      5824.507       6238.6458      12063.153      141507.72      41.360271      41.360271      82.720542          16040 
    284000   2810.1803      600434.74      2048.2225      599854.78      599244.87      602204.57      573.72761     -2352.7704      1942.5439      5826.0755      6322.1645      12148.24       141441.72      41.353841      41.353841      82.707681          16040 
    285000   2824.4389      603154.44      2055.6925      602359.91      604257.43      602845.97      107.13183     -140.33626     -5500.763       5855.6365      6268.0626      12123.699      141313.17      41.341308      41.341308      82.682615          16040 
    286000   2802.9698      593309.46      2063.1596      593881.27      592145.95      593901.15      1149.0042     -534.59577     -2888.742       5811.1267      6279.6314      12090.758      141691.23      41.378143      41.378143      82.756285          16040 
[...]
   3930000   2772.0474      600233.52      6945.4051      602272.12      599233.84      599194.61      752.72492      292.09808     -56.07606       5747.0184      6892.8226      12639.841      141323.38      41.34321       41.34321       82.680979          16040 
   3931000   2759.2455      599394.85      6952.9411      599711.36      599644.75      598828.44     -2864.0222     -1659.1868      537.02474      5720.4773      6914.3509      12634.828      141336.07      41.344448      41.344448      82.683454          16040 
   3932000   2765.7674      599955.06      6960.4755      600567.82      600672.19      598625.18     -912.81383      387.92462      353.60637      5733.9986      6918.7568      12652.755      141287.36      41.339698      41.339698      82.673956          16040 
   3933000   2766.7929      603645.74      6968.0148      603128.41      604632.52      603176.3      -2445.9818     -482.75099      3922.3027      5736.1247      6954.6496      12690.774      141185.78      41.329788      41.329788      82.654137          16040 
   3934000   2749.527       595415.48      6975.5532      598610.66      594613.44      593022.34     -1401.1839      1665.3351      422.44042      5700.3289      6907.5699      12607.899      141406.22      41.351287      41.351287      82.697132          16040 
   3935000   2767.7838      598167.92      6983.0894      599096.26      597085.75      598321.75      3580.8817      2323.318       3534.147       5738.179       6889.5287      12627.708      141352.26      41.346027      41.346027      82.686612          16040 
   3936000   2755.3454      603211.51      6990.6243      603175.35      604786.85      601672.32     -1588.5235      1267.6948     -541.95798      5712.3917      6985.0424      12697.434      141165.96      41.327854      41.327854      82.650269          16040 
   3937000   2759.8011      597382.96      6998.1486      596076.87      598085.68      597986.33     -1978.2867      1396.9957     -2234.8834      5721.6292      6897.4451      12619.074      141374.45      41.34819       41.34819       82.690938          16040 
   3938000   2772.1359      600603.22      7005.6809      601294.64      599341.93      601173.09      180.27955      2062.256       1884.3477      5747.2017      6909.6875      12656.889      141272.93      41.338291      41.338291      82.671141          16040 
   3939000   2760.8173      599044.99      7013.213       600170.19      598649.93      598314.85      1220.1923      1918.2486      1355.8979      5723.736       6885.5549      12609.291      141399.84      41.350666      41.350666      82.695889          16040 
   3940000   2772.4039      608277.08      7020.7497      608338.75      608080.57      608411.91      1236.4387      352.20495      903.08452      5747.7573      7015.3711      12763.128      140989.66      41.310642      41.310642      82.615847          16040 
   3941000   2751.0427      597066.6       7028.2805      598169.73      596351.24      596678.84      2306.1478      2242.5263      2972.7009      5703.4713      6906.2285      12609.7        141395.84      41.350275      41.350275      82.695108          16040 
   3942000   2754.2959      601244.81      7035.8154      600986.49      601132.47      601615.47     -655.31486      1651.0775      2021.0277      5710.2157      6952.7614      12662.977      141252.19      41.336268      41.336268      82.667095          16040 
   3943000   2774.4679      601835.74      7043.3479      603776.47      601840.14      599890.62     -3738.3587      567.18835     -1106.6655      5752.0364      6933.4292      12685.466      141191.04      41.330301      41.330301      82.655163          16040 
   3944000   2769.2374      596459.51      7050.8802      595650.44      597029.77      596698.32     -2207.3679     -1700.461       2604.0013      5741.1926      6857.0098      12598.202      141421.72      41.352798      41.352798      82.700153          16040 
   3945000   2760.204       603650.75      7058.4098      604395.59      602390.41      604166.25     -220.33728      2038.3373     -239.39876      5722.4646      6971.2792      12693.744      141166.2       41.327878      41.327878      82.650316          16040 
   3946000   2786.2667      597971.03      7065.9397      599109.19      598871.85      595932.06      2148.2261      2483.635       1092.0383      5776.4978      6834.6001      12611.098      141386.08      41.349324      41.349324      82.693205          16040 
   3947000   2759.9019      603883.43      7073.4696      604837.67      606418.37      600394.24      305.91949      2142.7529      284.97321      5721.8381      6972.936       12694.774      141162.77      41.327543      41.327543      82.649647          16040 
   3948000   2754.0236      599763.13      7081.0028      600656.55      599207.65      599425.19     -1903.1191      4619.6874      1041.7469      5709.6512      6931.0308      12640.682      141306.6       41.341574      41.341574      82.677706          16040 
   3949000   2771.7239      599844.12      7088.5303      600919.63      599434.55      599178.17      1948.5816      732.96522     -558.53877      5746.3475      6882.1971      12628.545      141338.47      41.344682      41.344682      82.683923          16040 
   3950000   2768.4822      605700.54      7096.0647      605871.05      607631.92      603598.65     -436.64656      417.09962     -938.38773      5739.6269      6993.3935      12733.02       141059.73      41.317485      41.317485      82.629532          16040 
   3951000   2772.2899      593789.34      7103.6014      593470.37      594068.28      593829.37      53.760771      4408.3372      647.69151      5747.5209      6834.5966      12582.118      141461.4       41.356666      41.356666      82.707888          16040 
   3952000   2783.4967      604995.73      7111.1276      604110.57      603123.86      607752.75     -2421.1164     -2182.664      -401.25167      5770.755       6959.7302      12730.485      141065         41.318         41.318         82.630561          16040 
   3953000   2765.5752      598123.28      7118.6641      598744.11      597963.8       597661.93     -967.65743     -754.23834      108.47755      5733.6001      6887.0416      12620.642      141356.6       41.346449      41.346449      82.687457          16040 
   3954000   2752.7199      599697.32      7126.1961      600637.49      599863.91      598590.56     -426.25369      218.94504     -145.33715      5706.9483      6944.7946      12651.743      141271.7       41.33817       41.33817       82.6709            16040 
   3955000   2767.5135      601619.89      7133.7249      602224.18      603332.05      599303.42     -6370.1985     -464.14378     -1320.5038      5737.6186      6919.6941      12657.313      141256.31      41.336669      41.336669      82.667897          16040 
   3956000   2765.3704      597007.39      7141.252       595189.47      598499.39      597333.3      -140.28588      824.78713      3314.118       5733.1755      6879.2538      12612.429      141375.83      41.348324      41.348324      82.691207          16040 
   3957000   2757.4468      605149.87      7148.7899      607519.96      604109.43      603820.23      1026.3714     -729.95301      2820.3062      5716.7482      6996.9934      12713.742      141105.45      41.321948      41.321948      82.638458          16040 
   3958000   2763.8984      594581.12      7156.3276      596818.51      592970.82      593954.04      3067.8014      80.627531      1426.562       5730.1237      6840.7817      12570.905      141486.96      41.359156      41.359156      82.712868          16040 
   3959000   2783.5695      601670.8       7163.8485      602491.06      600639.06      601882.27     -396.0821      -3201.2695      2139.9933      5770.906       6917.0697      12687.976      141172.31      41.328474      41.328474      82.651508          16040 
   3960000   2773.791       600605.15      7171.3785      601062.01      600891.4       599862.03     -1045.2306     -652.73274     -813.70478      5750.6331      6909.2168      12659.85       141247.02      41.335763      41.335763      82.666086          16040 
   3961000   2760.2573      598625.16      7178.9092      597963.68      599029.67      598882.12     -2872.411      -198.0093       1679.1257      5722.575       6908.6632      12631.238      141321.12      41.34299       41.34299       82.680539          16040 
   3962000   2766.691       601566.91      7186.4427      601341.41      602122.58      601236.74      814.45314      2659.716      -1513.528       5735.9134      6922.3447      12658.258      141247.31      41.335791      41.335791      82.666142          16040 
   3963000   2759.8339      597789.59      7193.972       596490.95      599438.55      597439.27     -1863.3022      1833.0404      1725.0371      5721.6973      6898.36        12620.057      141348.53      41.345663      41.345663      82.685884          16040 
   3964000   2771.4219      597093.29      7201.504       598422.44      595921.79      596935.63     -1366.0017      4154.8498      2569.1451      5745.7215      6858.0249      12603.746      141390.94      41.349798      41.349798      82.694153          16040 
   3965000   2776.8687      604492         7209.0369      605151.42      604545.2       603779.37      4173.8291      1165.3486      1438.0905      5757.0139      6954.6923      12711.706      141102.78      41.321688      41.321688      82.637938          16040 
   3966000   2769.9469      597692.49      7216.5649      598127.81      596043.6       598906.07      613.58381     -576.95595     -914.6163       5742.6635      6869.8189      12612.482      141367.14      41.347477      41.347477      82.689512          16040 
   3967000   2754.9154      601016.98      7224.092       601249.92      600752.29      601048.73     -591.87615      2627.8352     -492.21076      5711.5001      6950.6989      12662.199      141234         41.334493      41.334493      82.663547          16040 
   3968000   2757.9041      600142.7       7231.6166      601055.5       599218.07      600154.52     -1540.937       1031.0592      60.370831      5717.6963      6934.8187      12652.515      141258.98      41.33693       41.33693       82.668419          16040 
   3969000   2760.8196      599500.32      7239.1417      600505.96      599897.5       598097.51     -2897.1879      1286.2825     -501.54345      5723.7407      6899.7406      12623.481      141335.12      41.344356      41.344356      82.68327           16040 
   3970000   2760.7512      599251.82      7246.6685      599673.38      598369.76      599712.32     -1658.7932      4218.3145     -1094.4001      5723.599       6895.3335      12618.933      141346.36      41.345452      41.345452      82.685462          16040 
   3971000   2775.0266      602693.84      7254.1969      604117.35      601168.75      602795.42     -3629.0479      2781.2347     -2671.8079      5753.1948      6908.6183      12661.813      141230.44      41.334146      41.334146      82.662851          16040 
   3972000   2746.6367      591635.37      7261.717       592509.73      591808.9       590587.47      353.19417      5216.6564     -1797.5242      5694.3367      6825.3979      12519.735      141611.19      41.371257      41.371257      82.737069          16040 
   3973000   2760.3653      603923.01      7269.2459      604223.12      601779.49      605766.42     -2353.687       823.85475      1296.4589      5722.799       6988.3378      12711.137      141098.6       41.321279      41.321279      82.63712           16040 
   3974000   2765.3345      600239.78      7276.78        600338.21      599859.4       600521.72     -1930.22        3576.1698      547.9005       5733.1011      6905           12638.101      141290.77      41.340031      41.340031      82.674621          16040 
   3975000   2779.4134      599110.73      7284.3163      600555.64      598719.25      598057.31     -1109.5891      2477.6974      627.97308      5762.2896      6855.8623      12618.152      141343.7       41.345192      41.345192      82.684943          16040 
   3976000   2783.0032      602203.32      7291.8483      601660.1       601317.78      603632.08     -4785.4138      1008.0903      3709.5768      5769.7318      6888.0805      12657.812      141237.23      41.334808      41.334808      82.664176          16040 
   3977000   2729.4647      596839.99      7299.3791      594783.99      597431.44      598304.54     -1600.6744     -133.4777       758.54426      5658.7356      6927.2586      12585.994      141428.24      41.353433      41.353433      82.701424          16040 
   3978000   2774.6361      601946.2       7306.9106      602161.62      599928.09      603748.87      2225.4796     -997.76214     -1958.8491      5752.3851      6906.8304      12659.216      141232.1       41.334307      41.334307      82.663174          16040 
   3979000   2753.2111      601204.72      7314.4441      600841.35      601821.99      600950.82      1521.1176      1769.0967      3580.8369      5707.9669      6928.2743      12636.241      141291.96      41.340146      41.340146      82.674851          16040 
   3980000   2762.7641      595931.21      7321.9773      598237.63      594647.62      594908.37      389.98643     -2293.7862      1063.9159      5727.772       6869.6503      12597.422      141396.29      41.35032       41.35032       82.695197          16040 
   3981000   2759.4233      601880.05      7329.5115      603272.02      603652.67      598715.46     -700.76555      1884.2022     -556.13352      5720.8459      6932.5048      12653.351      141246.21      41.335684      41.335684      82.665928          16040 
   3982000   2759.7584      601551.1       7337.0488      602836.64      601156.64      600660.01     -5852.654       2610.1314      1846.5439      5721.5407      6928.8154      12650.356      141252.89      41.336336      41.336336      82.66723           16040 
   3983000   2776.1446      597049.53      7344.5862      597060.29      598304.37      595783.92     -1900.4223      3710.5893     -1523.5019      5755.5127      6847.1424      12602.655      141380.56      41.348786      41.348786      82.69213           16040 
   3984000   2765.8289      603947.92      7352.1234      605962.86      603397.29      602483.6       157.61408      3041.8346      1183.2473      5734.1261      6970.1565      12704.283      141108.74      41.32227       41.32227       82.639101          16040 
   3985000   2747.2084      590618.12      7359.6576      591898.24      590019.01      589937.12      2424.3912     -1885.7691     -209.95835      5695.5221      6815.0279      12510.55       141626.31      41.37273       41.37273       82.740015          16040 
   3986000   2776.1553      604191.34      7367.1931      605098.38      604055.3       603420.34     -1347.9104     -2966.1011      1926.6803      5755.5348      6932.7955      12688.33       141147.98      41.326099      41.326099      82.646759          16040 
   3987000   2746.5316      600636.83      7374.7301      602544.5       600538.14      598827.86     -1642.7157      2269.3766      2188.184       5694.1188      6952.9714      12647.09       141257.48      41.336783      41.336783      82.668126          16040 
   3988000   2786.7353      598371.6       7382.267       600303.13      597278.05      597533.61     -190.33777      2633.6045     -1092.3775      5777.4694      6855.7699      12633.239      141291.76      41.340127      41.340127      82.674812          16040 
   3989000   2762.5974      605760.48      7389.811       606394.59      606028.3       604858.55     -4331.2165      504.04226     -4078.4619      5727.4266      6996.6448      12724.071      141049.59      41.316495      41.316495      82.627551          16040 
   3990000   2768.179       594399.64      7397.3447      593356.75      595769.98      594072.19     -2480.8406      1586.0787     -715.9898       5738.9982      6810.8985      12549.897      141512.27      41.361622      41.361622      82.717801          16040 
   3991000   2766.5526      599482.94      7404.8818      601315.56      596154.91      600978.34     -742.86543      2721.3242      137.29913      5735.6264      6885.6185      12621.245      141319.98      41.342879      41.342879      82.680317          16040 
   3992000   2743.4009      600261.51      7412.418       599762.1       600060.81      600961.64     -2951.616       2161.4326     -2363.1712      5687.6283      6941.1566      12628.785      141298.07      41.340743      41.340743      82.676044          16040 
   3993000   2772.3044      596458.92      7419.9557      595581.49      596855.37      596939.92      3202.505       1173.7485      956.39382      5747.551       6843.4657      12591.017      141398.83      41.350567      41.350567      82.695691          16040 
   3994000   2743.4474      607080.28      7427.4891      608267.07      606204.87      606768.9       965.31101     -2615.8847     -3698.1214      5687.7246      7039.3668      12727.091      141035.48      41.315117      41.315117      82.624796          16040 
   3995000   2758.7291      599347.01      7435.021       598737.66      599288.58      600014.81      894.07654     -2106.7516      321.46763      5719.4067      6902.1166      12621.523      141314.92      41.342386      41.342386      82.67933           16040 
   3996000   2763.0161      599759.12      7442.5556      600582.68      601749.8       596944.87     -1757.1647      3758.05       -53.163591      5728.2946      6895.7259      12624.021      141307.93      41.341704      41.341704      82.677967          16040 
   3997000   2758.6556      598528.88      7450.0932      598897.6       597157.71      599531.32     -768.46714      2186.6529     -4001.3238      5719.2542      6908.1505      12627.405      141296.81      41.340619      41.340619      82.675798          16040 
   3998000   2738.3803      602486.94      7457.6301      602529.66      603173.56      601757.61     -1937.65        3023.3639     -2702.5662      5677.2196      6983.3372      12660.557      141208.22      41.331978      41.331978      82.658515          16040 
   3999000   2750.7565      597295.19      7465.1759      596722.63      599568.71      595594.24     -3284.7331      1582.1544      482.30761      5702.8779      6887.7199      12590.598      141395.22      41.350215      41.350215      82.694988          16040 
   4000000   2784.2985      602373.16      7472.7188      603650.08      601370.18      602099.23      4476.0719      1217.6777     -879.06563      5772.4173      6880.7709      12653.188      141226.32      41.333744      41.333744      82.662047          16040 
Loop time of 7472.72 on 8 procs for 1000000 steps with 16040 atoms

Performance: 5.781 ns/day, 4.152 hours/ns, 133.820 timesteps/s
61.3% CPU use with 1 MPI tasks x 8 OpenMP threads

MPI task timing breakdown:
Section |  min time  |  avg time  |  max time  |%varavg| %total
---------------------------------------------------------------
Pair    | 7198.9     | 7198.9     | 7198.9     |   0.0 | 96.34
Neigh   | 7.4283     | 7.4283     | 7.4283     |   0.0 |  0.10
Comm    | 32.12      | 32.12      | 32.12      |   0.0 |  0.43
Output  | 1.3695     | 1.3695     | 1.3695     |   0.0 |  0.02
Modify  | 204.66     | 204.66     | 204.66     |   0.0 |  2.74
Other   |            | 28.29      |            |       |  0.38

Nlocal:          16040 ave       16040 max       16040 min
Histogram: 1 0 0 0 0 0 0 0 0 0
Nghost:          13909 ave       13909 max       13909 min
Histogram: 1 0 0 0 0 0 0 0 0 0
Neighs:              0 ave           0 max           0 min
Histogram: 1 0 0 0 0 0 0 0 0 0
FullNghs:  1.64084e+06 ave 1.64084e+06 max 1.64084e+06 min
Histogram: 1 0 0 0 0 0 0 0 0 0

Total # of neighbors = 1640844
Ave neighs/atom = 102.29701
Neighbor list builds = 19645
Dangerous builds = 0
Total wall time: 8:18:35
