
atom_style atomic
units metal
boundary p p p
#atom_modify sort 0 0.0
newton on

read_data data.lammps
Reading data file ...
  orthogonal box = (0 0 0) to (43.790145 43.790145 87.58029)
  1 by 1 by 1 MPI processor grid
  reading atoms ...
  16040 atoms
  read_data CPU = 0.044 seconds
# replicate 10 10 20

### interactions

pair_style flare
pair_coeff * * lmp.flare
Reading potential file lmp.flare with DATE: Thu

# compute unc all flare/std/atom L_inv_lmp.flare sparse_desc_lmp.flare
# compute MaxUnc all reduce max c_unc

mass 1 12.011000
mass 2 28.085000

thermo_style custom step temp press cpu pxx pyy pzz pxy pxz pyz ke pe etotal vol lx ly lz atoms    #c_MaxUnc
thermo 1000
timestep 0.0005
restart 100000 restart_*.dat

#################### Equilibrate at P and T_es ##############################
velocity all create $T 41928459 rot yes dist gaussian
velocity all create 3400 41928459 rot yes dist gaussian
fix mom all momentum 1000 linear 1 1 1 angular

fix 1 all npt temp $T $T $(100.0*dt) iso $P $P $(1000.0*dt)
fix 1 all npt temp 3400 $T $(100.0*dt) iso $P $P $(1000.0*dt)
fix 1 all npt temp 3400 3400 $(100.0*dt) iso $P $P $(1000.0*dt)
fix 1 all npt temp 3400 3400 0.050000000000000002776 iso $P $P $(1000.0*dt)
fix 1 all npt temp 3400 3400 0.050000000000000002776 iso 600000 $P $(1000.0*dt)
fix 1 all npt temp 3400 3400 0.050000000000000002776 iso 600000 600000 $(1000.0*dt)
fix 1 all npt temp 3400 3400 0.050000000000000002776 iso 600000 600000 0.5
dump 1 all custom 1000 1equil.bin id type x y z vx vy vz
run   10000 # report performance
Neighbor list info ...
  update every 1 steps, delay 10 steps, check yes
  max neighbors/atom: 2000, page size: 100000
  master list distance cutoff = 6
  ghost atom cutoff = 6
  binsize = 6, bins = 8 8 15
  1 neighbor lists, perpetual/occasional/extra = 1 0 0
  (1) pair flare/kk, perpetual
      attributes: full, newton on, kokkos_device
      pair build: full/bin/kk/device
      stencil: full/bin/3d
      bin: kk/device
Per MPI rank memory allocation (min/avg/max) = 16.04 | 16.04 | 16.04 Mbytes
   Step          Temp          Press           CPU            Pxx            Pyy            Pzz            Pxy            Pxz            Pyz           KinEng         PotEng         TotEng         Volume           Lx             Ly             Lz          Atoms   
         0   3400           79264.947      0              79901.728      78805.53       79087.584      1130.3329     -219.77229     -813.23023      7048.8918     -2985.8921      4062.9997      167941.93      43.790145      43.790145      87.58029           16040 
      1000   3486.2585      599531.28      7.1119233      601403.86      600239.34      596950.63      2449.0935     -2625.3765     -338.67814      7227.7233      8043.6866      15271.41       142659.6       41.472193      41.472193      82.944386          16040 
      2000   3360.5886      599754.8       14.531079      599181.66      598919.94      601162.78      3695.1691     -190.16447     -4608.3898      6967.184       7836.9731      14804.157      142361.41      41.443277      41.443277      82.886555          16040 
      3000   3399.842       599077.93      21.949497      599968.19      599286.06      597979.54      3145.8015     -891.63797      3126.8852      7048.5643      7916.0526      14964.617      142390.69      41.446119      41.446119      82.892238          16040 
      4000   3376.1024      598779.22      29.373417      599118.26      600878.17      596341.22      4000.842       1436.9285      1110.06        6999.3473      7875.3037      14874.651      142275.13      41.434904      41.434904      82.869807          16040 
      5000   3368.8655      599840.51      36.799403      599690.13      599348.27      600483.13      2520.2761      746.32741     -2515.5648      6984.3435      7951.2636      14935.607      142234.51      41.43096       41.43096       82.86192           16040 
      6000   3393.0308      598075.27      44.222004      598778.14      597423.5       598024.17      3762.7455     -414.51232      167.21889      7034.4432      7872.5572      14907          142284.49      41.435812      41.435812      82.871624          16040 
      7000   3405.1194      600557.42      51.652775      599320.31      602576.05      599775.91     -131.91374      2806.8357     -565.49185      7059.5053      7870.8816      14930.387      142175.03      41.425184      41.425184      82.850368          16040 
      8000   3428.5918      597950.35      59.074465      595847.34      599575.91      598427.79      2926.9545      28.287993      1892.7729      7108.1684      7803.6729      14911.841      142247.79      41.432249      41.432249      82.864498          16040 
      9000   3409.0595      600077.96      66.492881      598615.17      600757.54      600861.17     -144.11624      804.68788      762.21266      7067.674       7845.9848      14913.659      142234.39      41.430948      41.430948      82.861896          16040 
     10000   3428.0748      598353.03      73.914056      598287.95      599034.79      597736.34     -2971.4189      260.64849      41.110342      7107.0966      7826.8309      14933.928      142277         41.435085      41.435085      82.870171          16040 
Loop time of 73.9141 on 8 procs for 10000 steps with 16040 atoms

Performance: 5.845 ns/day, 4.106 hours/ns, 135.292 timesteps/s
61.1% CPU use with 1 MPI tasks x 8 OpenMP threads

MPI task timing breakdown:
Section |  min time  |  avg time  |  max time  |%varavg| %total
---------------------------------------------------------------
Pair    | 70.899     | 70.899     | 70.899     |   0.0 | 95.92
Neigh   | 0.10694    | 0.10694    | 0.10694    |   0.0 |  0.14
Comm    | 0.35834    | 0.35834    | 0.35834    |   0.0 |  0.48
Output  | 0.012155   | 0.012155   | 0.012155   |   0.0 |  0.02
Modify  | 2.2792     | 2.2792     | 2.2792     |   0.0 |  3.08
Other   |            | 0.2586     |            |       |  0.35

Nlocal:          16040 ave       16040 max       16040 min
Histogram: 1 0 0 0 0 0 0 0 0 0
Nghost:          13950 ave       13950 max       13950 min
Histogram: 1 0 0 0 0 0 0 0 0 0
Neighs:              0 ave           0 max           0 min
Histogram: 1 0 0 0 0 0 0 0 0 0
FullNghs:  1.62892e+06 ave 1.62892e+06 max 1.62892e+06 min
Histogram: 1 0 0 0 0 0 0 0 0 0

Total # of neighbors = 1628924
Ave neighs/atom = 101.55387
Neighbor list builds = 271
Dangerous builds = 0
run  990000
Per MPI rank memory allocation (min/avg/max) = 16.23 | 16.23 | 16.23 Mbytes
   Step          Temp          Press           CPU            Pxx            Pyy            Pzz            Pxy            Pxz            Pyz           KinEng         PotEng         TotEng         Volume           Lx             Ly             Lz          Atoms   
     10000   3428.0748      598353.03      0              598287.95      599034.79      597736.34     -2971.4189      260.64849      41.110342      7107.0966      7826.8309      14933.928      142277         41.435085      41.435085      82.870171          16040 
     11000   3401.5394      597253.19      7.426318       596046.79      598890.51      596822.27     -1688.6235     -1268.2679      1927.0049      7052.0833      7740.2033      14792.287      142353.6       41.44252       41.44252       82.88504           16040 
     12000   3437.9667      608281.89      14.857684      609775.26      607378.16      607692.25     -1302.4453      1839.1378      4968.2827      7127.6045      7958.5939      15086.198      141967.82      41.405049      41.405049      82.810099          16040 
     13000   3395.4109      599307.78      22.286316      600492         598018.55      599412.8      -1166.222       1528.3872     -3849.3149      7039.3776      7825.8853      14865.263      142228.17      41.430344      41.430344      82.860688          16040 
     14000   3414.1283      599940.08      29.72051       601002.34      598195.77      600622.13     -1923.8508     -1414.689      -1645.4804      7078.1826      7771.6714      14849.854      142258.38      41.433277      41.433277      82.866554          16040 
     15000   3413.2164      600834.24      37.149531      600748.99      602733.65      599020.08     -2365.412      -362.94847      3383.6148      7076.2921      7838.4677      14914.76       142239.06      41.431401      41.431401      82.862803          16040 
     16000   3378.7152      600815.16      44.584598      599307.81      600973.08      602164.59      1531.3254      2682.7723     -250.34205      7004.7641      7883.7509      14888.515      142223.99      41.429939      41.429939      82.859878          16040 
     17000   3367.2282      596446.48      52.032531      596464.55      596981.36      595893.53     -220.16156      890.46741     -1169.7413      6980.9492      7728.4768      14709.426      142246.57      41.432131      41.432131      82.864262          16040 
     18000   3391.6787      601862.04      59.474963      600159.53      602352.33      603074.27     -2665.6656     -1839.0197     -244.25017      7031.64        7846.8159      14878.456      142251.58      41.432617      41.432617      82.865235          16040 
     19000   3385.9463      604627.21      66.91012       606551.61      604784.82      602545.2      -3168.024       342.41052      853.9324       7019.7557      7860.8523      14880.608      141994.44      41.407637      41.407637      82.815275          16040 
     20000   3399.4096      591344.63      74.33414       592908.56      591376.14      589749.2       2781.8701     -3867.1053      1304.041       7047.6677      7667.9495      14715.617      142542.89      41.46088       41.46088       82.92176           16040 
     21000   3392.7802      602760.78      81.754549      603242         602223.97      602816.38      744.61984      1444.4534     -547.39363      7033.9237      7776.3614      14810.285      142147.55      41.422515      41.422515      82.845029          16040 
     22000   3370.56        601374.68      89.174159      599445.04      602921.35      601757.64      1198.6647     -2678.1009      95.639464      6987.8567      7893.777       14881.634      142144.87      41.422254      41.422254      82.844509          16040 
     23000   3404.4514      598817.43      96.602782      599842.1       598786.48      597823.71      344.18022     -3444.6198      3086.6329      7058.1205      7731.4097      14789.53       142311.48      41.438432      41.438432      82.876864          16040 
     24000   3395.0425      600335.43      104.02456      598875.8       599189.32      602941.18     -2447.7598      180.07249     -2810.7169      7038.614       7816.0385      14854.652      142271.77      41.434578      41.434578      82.869155          16040 
     25000   3380.9288      604347.58      111.46455      602671.43      605630.79      604740.53      999.23411      2695.643      -2829.9048      7009.3533      7891.3288      14900.682      142052.47      41.413277      41.413277      82.826554          16040 
     26000   3437.4683      595811.94      118.90658      595523.71      594602.68      597309.43     -2100.75        284.57088     -2156.5227      7126.5713      7777.1846      14903.756      142448         41.451678      41.451678      82.903356          16040 
     27000   3410.2687      605230.03      126.33258      602577.33      605363.12      607749.63     -950.05563      3307.8361     -3060.365       7070.1809      7780.4856      14850.666      142121.23      41.419958      41.419958      82.839917          16040 
     28000   3419.6138      599863.28      133.76274      599907.67      598344.08      601338.08      974.88298      1130.8757      1522.1956      7089.5552      7777.1412      14866.696      142267.89      41.4342        41.4342        82.868401          16040 
     29000   3386.1533      598995.5       141.19674      599065.15      598316.2       599605.15      989.95023     -1308.0464     -5027.9276      7020.1847      7714.4584      14734.643      142259.65      41.4334        41.4334        82.866801          16040 
     30000   3420.8651      602900.77      148.63401      600441.27      604045.62      604215.42     -847.55263     -800.09354     -1408.5787      7092.1494      7838.7066      14930.856      142160.79      41.423801      41.423801      82.847602          16040 
     31000   3404.8184      595367.24      156.0665       593310.97      596987.46      595803.3      -3001.23        159.32309     -1960.2411      7058.8812      7601.0952      14659.976      142429.2       41.449855      41.449855      82.89971           16040 
     32000   3423.7368      602679.25      163.50095      602994.97      604597.23      600445.53     -2032.021       334.2998      -1885.2142      7098.1029      7814.1208      14912.224      142212.6       41.428832      41.428832      82.857664          16040 
     33000   3412.0313      603255.89      170.93794      603387.65      604388.19      601991.82     -2340.3979     -3685.0707     -1591.981       7073.835       7791.6773      14865.512      142130.77      41.420885      41.420885      82.84177           16040 
     34000   3421.6692      592385.9       178.38012      593130.53      589321.31      594705.85      460.52227     -742.11158      2909.6941      7093.8164      7675.5343      14769.351      142508.24      41.457521      41.457521      82.915041          16040 
     35000   3375.9676      602873.35      185.80858      602405.16      602026.35      604188.54      54.031412     -3690.4282     -418.51689      6999.0678      7829.4029      14828.471      142116.81      41.419528      41.419528      82.839057          16040 
     36000   3405.4851      599464.89      193.228        600468.53      599520.96      598405.18     -2581.2442     -587.57196     -418.53549      7060.2634      7726.075       14786.338      142282.89      41.435657      41.435657      82.871314          16040 
     37000   3480.462       600882.45      200.64892      601399.52      600477.8       600770.03     -1473.1391      2006.5979      1210.3825      7215.7059      7783.8972      14999.603      142215.77      41.42914       41.42914       82.85828           16040 
     38000   3398.3196      602987.18      208.0703       602737.69      601704.68      604519.18     -284.49855      2260.6617      3302.1453      7045.408       7705.3323      14750.74       142079.16      41.41587       41.41587       82.83174           16040 
     39000   3392.7429      591661.53      215.49315      592375.19      592115.42      590493.99      1108.595       2841.7463     -992.72228      7033.8463      7651.4776      14685.324      142532.3       41.459854      41.459854      82.919707          16040 
     40000   3388.9476      604827.07      222.92266      603672.43      604221.97      606586.8       3859.9158     -2089.5011      6124.6587      7025.978       7876.0779      14902.056      142084.62      41.416401      41.416401      82.832802          16040 
     41000   3387.0766      600480.7       230.35303      600264.59      602157.55      599019.97      3834.9321      290.45398     -3615.9825      7022.099       7896.8065      14918.905      142210.17      41.428596      41.428596      82.857192          16040 
     42000   3383.9786      597737.49      237.77751      598135.86      597237.12      597839.51      425.05139     -2508.5581      613.96895      7015.6761      7711.3639      14727.04       142226.11      41.430144      41.430144      82.860288          16040 
     43000   3420.7909      602276.12      245.21664      604243.27      600233.32      602351.78      104.74803      2041.107      -370.35786      7091.9956      7764.6873      14856.683      142122.38      41.42007       41.42007       82.840139          16040 
     44000   3350.3651      594259.96      252.65912      595180.11      593851.02      593748.76      2352.6459     -1265.0487     -1582.8418      6945.9886      7699.3435      14645.332      142367.18      41.443838      41.443838      82.887675          16040 
     45000   3429.8677      602347.8       260.09882      603850.6       602282.28      600910.52      523.89151     -1792.4842     -1063.5127      7110.8135      7769.8075      14880.621      142113.43      41.4192        41.4192        82.8384            16040 
     46000   3429.2269      596892         267.53514      596097.18      595288.1       599290.74      3862.4184      759.30287      3055.5857      7109.4851      7817.3388      14926.824      142377.32      41.444821      41.444821      82.889642          16040 
     47000   3389.0411      598856.19      274.96995      599309.25      597633.94      599625.38      5802.0367      1633.3082     -2879.9344      7026.1718      7687.5681      14713.74       142265.6       41.433978      41.433978      82.867957          16040 
     48000   3389.4882      604412.13      282.39456      605401         602758.55      605076.82      3891.8629      1526.4176      1638.1399      7027.0987      7802.0544      14829.153      142080.99      41.416048      41.416048      82.832096          16040 
     49000   3410.8933      594503.35      289.81836      595080.36      596368.34      592061.34      664.36632      585.50029      1831.1138      7071.4758      7836.7841      14908.26       142450.58      41.451929      41.451929      82.903858          16040 
     50000   3392.1055      602178.13      297.24015      601972.55      602052.86      602508.99      714.27838      566.11919     -2746.9288      7032.5249      7733.5836      14766.109      142126.8       41.420499      41.420499      82.840998          16040 
     51000   3373.2283      597515.28      304.66829      597926.19      597384.46      597235.2      -314.46488      3293.4809      2776.7602      6993.3885      7757.0837      14750.472      142317.57      41.439023      41.439023      82.878046          16040 
     52000   3421.2766      595886.54      312.08859      596283.96      593971.56      597404.1      -955.2212       1106.5707      3138.7746      7093.0026      7703.0841      14796.087      142386.95      41.445756      41.445756      82.891512          16040 
     53000   3406.4771      600181.24      319.51912      599159.21      599957.32      601427.2       1235.9329      2853.6703     -592.06352      7062.3202      7735.2043      14797.524      142179.09      41.425578      41.425578      82.851156          16040 
     54000   3387.5025      597096.13      326.95107      596481.8       597194.01      597612.57      183.18641      1718.8142      3968.8352      7022.9819      7666.1593      14689.141      142395.7       41.446605      41.446605      82.89321           16040 
     55000   3369.1701      601676.29      334.3804       602611.94      600628.97      601787.95     -1935.7249      1109.9614     -198.35653      6984.9751      7719.5395      14704.515      142116.6       41.419508      41.419508      82.839016          16040 
     56000   3391.7808      602045.32      341.81023      601019.22      603184.79      601931.94      230.15024     -869.14023     -2074.7838      7031.8516      7801.9002      14833.752      142187.2       41.426366      41.426366      82.852732          16040 
     57000   3398.4804      598346.77      349.2367       599812.99      598501.9       596725.42     -2271.7936     -1050.7841     -163.55776      7045.7413      7698.3646      14744.106      142381.2       41.445198      41.445198      82.890397          16040 
     58000   3372.7582      599718.24      356.65474      598845.81      599585.87      600723.04     -1789.7879     -1403.1245      2748.4167      6992.4139      7667.6003      14660.014      142203.9       41.427987      41.427987      82.855975          16040 
     59000   3377.2085      599153.47      364.09372      599107.28      597879.77      600473.37      1481.8534     -402.52884      1005.4294      7001.6404      7692.4653      14694.106      142189.84      41.426623      41.426623      82.853245          16040 
     60000   3394.7357      598208.53      371.51532      599797.09      595834.72      598993.79      649.29725     -1121.4183      260.85857      7037.9777      7707.9576      14745.935      142281.57      41.435529      41.435529      82.871057          16040 
     61000   3369.7457      605556.6       378.94276      603680.38      606306.82      606682.58      3692.4842     -4202.7175     -2096.3155      6986.1684      7728.0619      14714.23       141965.82      41.404855      41.404855      82.80971           16040 
     62000   3403.9598      590783.16      386.37967      590187.8       591424.81      590736.89     -2884.7827     -1747.0165      4542.5157      7057.1013      7588.9503      14646.052      142550.21      41.46159       41.46159       82.92318           16040 
     63000   3375.4164      600316.88      393.81329      602601.7       599321.81      599027.13     -2426.7424     -1979.5838     -1409.1185      6997.9251      7673.701       14671.626      142189.35      41.426575      41.426575      82.853149          16040 
     64000   3415.5512      601361.49      401.23794      603528.15      600983.22      599573.09     -819.8403       5472.1196      656.18195      7081.1326      7697.3241      14778.457      142180.45      41.425711      41.425711      82.851421          16040 
     65000   3411.9219      599696.54      408.68242      597078.49      601263.58      600747.56     -1411.8961      4058.0058      4702.6379      7073.6083      7660.0202      14733.629      142239.68      41.431461      41.431461      82.862923          16040 
     66000   3376.9209      598837.73      416.11313      600097.56      598853.45      597562.18     -4396.9187      474.14766      1206.7422      7001.0441      7764.4617      14765.506      142248.14      41.432283      41.432283      82.864567          16040 
     67000   3352.3964      599772.26      423.54288      599914.83      599176.64      600225.32      1602.66       -1186.0859     -367.05941      6950.1999      7701.9641      14652.164      142252.1       41.432668      41.432668      82.865336          16040 
     68000   3397.5292      599027.03      430.96792      598207.7       600640.68      598232.71     -683.18029      945.37047     -795.80548      7043.7693      7678.6692      14722.438      142354.08      41.442567      41.442567      82.885134          16040 
     69000   3396.8054      608798.92      438.39788      609252.34      606971.63      610172.78     -594.55436     -2420.3232      90.926615      7042.2687      7787.4266      14829.695      141953.19      41.403627      41.403627      82.807255          16040 
     70000   3404.2119      596217.16      445.82492      597143.65      595993.8       595514.03     -1147.8624      1023.1975      1317.3663      7057.6239      7614.5992      14672.223      142389.41      41.445994      41.445994      82.891989          16040 
     71000   3399.4225      602009.3       453.25787      598966.31      603099.39      603962.2       3252.1075     -529.6637      -402.51981      7047.6946      7753.0744      14800.769      142234.48      41.430957      41.430957      82.861914          16040 
     72000   3404.7042      598527.77      460.70125      598987.44      597868.94      598726.93      2159.0665      184.86226      2751.6696      7058.6446      7606.5482      14665.193      142233.18      41.430831      41.430831      82.861662          16040 
     73000   3419.8152      601545.93      468.1407       600270.95      601883.13      602483.71     -1095.3617     -356.65073     -3366.3836      7089.9727      7678.6478      14768.621      142213.45      41.428915      41.428915      82.85783           16040 
     74000   3404.9535      599680.15      475.5819       599395.4       600172.07      599472.97     -385.88713      1001.2251      2702.5457      7059.1614      7654.1202      14713.282      142232.72      41.430786      41.430786      82.861572          16040 
     75000   3415.6188      594573.8       483.02461      594531.84      591952.81      597236.74      1198.3672     -2926.7575     -2478.3376      7081.2727      7609.4307      14690.703      142418.83      41.448849      41.448849      82.897697          16040 
     76000   3392.9678      603485.78      490.464        604146.9       603414.19      602896.24     -2658.578       1947.8994      763.87891      7034.3126      7738.7945      14773.107      142141.93      41.421969      41.421969      82.843938          16040 
     77000   3464.6685      597971.73      497.90518      597990.18      597765.33      598159.66      4311.247       1850.6394      2034.3479      7182.9627      7687.646       14870.609      142376.95      41.444785      41.444785      82.889571          16040 
     78000   3391.7205      597889.11      505.33411      595909.94      598724.53      599032.85      573.4023       334.50938      3744.7693      7031.7267      7627.942       14659.669      142233.47      41.430858      41.430858      82.861717          16040 
     79000   3400.7415      603105.14      512.75596      602345.39      605169.61      601800.42      4423.3381      2132.7096     -58.065125      7050.4291      7740.3056      14790.735      142082.09      41.416155      41.416155      82.83231           16040 
     80000   3392.7606      596499.48      520.19488      595923.78      596334.96      597239.69     -1620.1429      872.41638      32.591106      7033.8829      7642.188       14676.071      142325.31      41.439774      41.439774      82.879548          16040 
     81000   3407.7574      599648.04      527.63338      599043.33      600358.27      599542.51      3095.5608      1482.3016     -4429.9549      7064.9744      7710.9589      14775.933      142275.92      41.43498       41.43498       82.86996           16040 
     82000   3413.6765      606583.84      535.06852      606062.85      604822.29      608866.38     -3462.2037      2127.739       783.16923      7077.2459      7762.1558      14839.402      142056.59      41.413677      41.413677      82.827354          16040 
     83000   3398.5303      595147.94      542.51154      594522.85      596485.48      594435.49      2014.6052     -1342.4266      4198.0863      7045.8447      7638.4615      14684.306      142486.54      41.455416      41.455416      82.910832          16040 
     84000   3401.4654      603240.35      549.94743      602887.5       601879.47      604954.06     -753.85278      645.94586     -867.99377      7051.9299      7730.8288      14782.759      142133         41.421101      41.421101      82.842203          16040 
     85000   3385.8917      599970.24      557.38263      600366.75      599267.7       600276.26     -832.91042      487.20765      3728.8932      7019.6425      7666.1254      14685.768      142231.24      41.430643      41.430643      82.861285          16040 
     86000   3415.9728      597900.05      564.81236      597634.25      597261.32      598804.58      3369.5845      1996.0778     -2735.4958      7082.0066      7600.0733      14682.08       142315.03      41.438776      41.438776      82.877552          16040 
     87000   3408.482       604621.03      572.23193      603665.15      605721.89      604476.05     -1876.5599      2729.6671     -334.701        7066.4766      7672.3914      14738.868      142080.13      41.415965      41.415965      82.83193           16040 
     88000   3420.6355      599054.56      579.65368      601054.54      599027.9       597081.26      695.21692      1062.3727     -541.55183      7091.6733      7593.6047      14685.278      142247.3       41.432202      41.432202      82.864403          16040 
     89000   3352.1915      600086.92      587.07588      598729.33      601105.46      600425.96      566.74617     -1694.7286     -2263.1684      6949.775       7641.4726      14591.248      142204.66      41.428061      41.428061      82.856123          16040 
     90000   3425.0162      604320.54      594.49645      604859.26      605324.04      602778.31      83.479845      6049.1593     -1503.7591      7100.7554      7687.7486      14788.504      142038.18      41.411888      41.411888      82.823776          16040 
     91000   3369.0435      592024.47      601.91701      591671.4       590875.3       593526.7      -2135.8163     -2295.3017      1952.2288      6984.7126      7549.6918      14534.404      142467.69      41.453588      41.453588      82.907176          16040 
     92000   3420.6793      603163.97      609.33666      602367.25      603379.71      603744.94      65.815761     -590.11579     -2604.9119      7091.7641      7668.4923      14760.256      142121.53      41.419987      41.419987      82.839974          16040 
     93000   3410.8584      599814.65      616.76011      601934.29      597289.18      600220.48      198.94192      1752.7251      1482.1345      7071.4034      7695.4017      14766.805      142259.56      41.433392      41.433392      82.866783          16040 
     94000   3417.9461      598252.61      624.18159      597919.42      595705.32      601133.1      -960.03527     -1768.4143     -3055.1221      7086.0976      7708.0318      14794.129      142348.43      41.442018      41.442018      82.884035          16040 
     95000   3398.6525      604448.97      631.61536      605071.04      604717.78      603558.09     -2362.8309     -1077.6034     -1601.6095      7046.0982      7701.1586      14747.257      142079.24      41.415879      41.415879      82.831757          16040 
     96000   3390.5636      599383.39      639.03404      598773.61      598876.44      600500.12     -1081.933      -194.77273      265.92069      7029.3282      7604.6904      14634.019      142275.57      41.434946      41.434946      82.869893          16040 
     97000   3402.2999      597406.65      646.45921      596152.86      598356.9       597710.2       1047.7571     -2509.029      -1382.0694      7053.66        7653.8685      14707.528      142308.84      41.438175      41.438175      82.876351          16040 
     98000   3400.4532      603482.3       653.89083      601326.28      604468.52      604652.1      -1990.4769     -591.93321      3469.31        7049.8314      7779.9919      14829.823      142040.82      41.412145      41.412145      82.82429           16040 
     99000   3391.6434      595828.57      661.3359       592614.29      597531.72      597339.7      -1905.2409     -1004.9504     -715.62104      7031.5669      7617.274       14648.841      142408.96      41.447891      41.447891      82.895783          16040 
    100000   3371.5219      600161.09      668.77871      600329.42      600243.11      599910.74      2980.8323     -2615.0011      1315.4484      6989.8508      7608.7981      14598.649      142159.89      41.423713      41.423713      82.847426          16040 
    101000   3377.4505      601299.39      676.21081      602058.14      602623.62      599216.43      67.953599      134.60057      2140.5199      7002.1422      7764.3444      14766.487      142144.02      41.422172      41.422172      82.844344          16040 
    102000   3354.8814      596861.36      683.64667      596731.47      595531.63      598320.98     -3708.5961     -844.09714     -1741.0453      6955.3517      7604.5231      14559.875      142357.76      41.442924      41.442924      82.885848          16040 
    103000   3416.4656      601908.79      691.08565      602136.5       601639.55      601950.31      1663.0817      1451.6579     -1129.1744      7083.0284      7626.8567      14709.885      142144.04      41.422173      41.422173      82.844347          16040 
    104000   3406.2333      602175.63      698.51342      602533.29      601453.17      602540.42     -474.03995      2715.8925     -1779.0156      7061.8146      7653.5827      14715.397      142201.53      41.427757      41.427757      82.855514          16040 
    105000   3389.3         597734.62      705.9555       597842.24      596394.49      598967.13      1518.8703     -902.34978     -760.88356      7026.7086      7589.8578      14616.566      142312.09      41.438491      41.438491      82.876982          16040 
    106000   3419.0267      599999.68      713.39978      600124.7       599200.79      600673.54     -2916.1348     -2187.5769      33.264053      7088.338       7582.6997      14671.038      142284.63      41.435826      41.435826      82.871652          16040 
    107000   3417.7005      603864.19      720.83216      605586.86      601904.55      604101.15      765.71407      958.36215      3913.0051      7085.5885      7719.5601      14805.149      142058.83      41.413895      41.413895      82.82779           16040 
    108000   3418.0667      595350.91      728.25649      594939         595251.16      595862.58     -1295.3165      1875.9258      895.78645      7086.3478      7538.6919      14625.04       142416.61      41.448633      41.448633      82.897266          16040 
    109000   3422.2864      601294.8       735.67852      601632.88      601413.91      600837.6      -4522.0343     -1228.761       2592.3581      7095.0961      7671.4017      14766.498      142252.46      41.432703      41.432703      82.865406          16040 
    110000   3399.0211      601012.92      743.10116      600174.04      598974.83      603889.9       418.21566     -791.90432     -2876.261       7046.8623      7613.02        14659.882      142190.52      41.426688      41.426688      82.853377          16040 
    111000   3423.5499      596869.57      750.52395      597201.85      595191.23      598215.64      285.63283      2308.0211      2446.0172      7097.7155      7648.0798      14745.795      142346.99      41.441878      41.441878      82.883756          16040 
    112000   3380.9308      603561.83      757.94928      604126.46      602797.58      603761.44      4280.0716     -936.35783     -4283.3357      7009.3575      7668.0599      14677.417      142075.38      41.415503      41.415503      82.831006          16040 
    113000   3363.7874      597104.76      765.37108      598426.51      596963.19      595924.57     -1326.5825     -1646.4082     -1433.2415      6973.8156      7607.4601      14581.276      142265.04      41.433924      41.433924      82.867848          16040 
    114000   3413.5392      599687.86      772.79979      599905.19      599476.32      599682.08     -2734.5871     -758.36266      621.60604      7076.9612      7612.1945      14689.156      142237.85      41.431285      41.431285      82.862569          16040 
    115000   3413.4982      610101.17      780.22965      610011.94      611009.33      609282.25     -59.840978      590.13778     -1077.2127      7076.8763      7806.5842      14883.46       141797.55      41.388489      41.388489      82.776979          16040 
    116000   3384.428       596615.98      787.66737      594491.78      597565.85      597790.31     -2249.9576      918.77716      3806.7392      7016.6079      7516.5721      14533.18       142297.29      41.437054      41.437054      82.874109          16040 
    117000   3399.2504      596699.74      795.11441      599031.41      593886.88      597180.92     -654.56281     -4341.3167     -2125.5715      7047.3377      7624.5989      14671.937      142300.84      41.437399      41.437399      82.874799          16040 
    118000   3399.236       599020.84      802.55313      598801.86      599302.02      598958.64     -2717.7328      3476.2736      2003.5222      7047.3078      7687.4491      14734.757      142295.61      41.436891      41.436891      82.873783          16040 
    119000   3419.1902      602313.66      809.99594      601994.97      601946.73      602999.29     -1337.9336      2179.682      -1612.5709      7088.677       7583.9631      14672.64       142108.4       41.418711      41.418711      82.837422          16040 
    120000   3427.4094      594878.18      817.41947      593134.69      596632.81      594867.02     -186.82734      1596.2499     -2720.1655      7105.7171      7567.2017      14672.919      142442.57      41.451151      41.451151      82.902303          16040 
    121000   3379.3371      599934.59      824.8414       599438.94      602101.68      598263.14     -3374.8109     -92.556339     -2850.6568      7006.0534      7674.7048      14680.758      142246.66      41.432139      41.432139      82.864279          16040 
    122000   3386.9444      603154.24      832.27183      602818.23      603491.48      603153.01      1792.5711     -2361.2222      4821.9976      7021.8249      7693.8455      14715.67       142102.29      41.418118      41.418118      82.836236          16040 
    123000   3405.0504      596497.36      839.69271      596821.9       596710.76      595959.41      3885.2325      2045.9031      895.28879      7059.3623      7658.5412      14717.904      142380.72      41.445152      41.445152      82.890303          16040 
    124000   3401.8031      604419.3       847.11396      602993.43      604894.15      605370.32     -807.19271     -3894.8913     -2616.8304      7052.6299      7620.4594      14673.089      142056.26      41.413645      41.413645      82.827291          16040 
    125000   3396.331       597504.01      854.53417      599126.65      594740.47      598644.91      1250.2292      1353.3569      1773.0293      7041.2853      7605.6911      14646.976      142310.39      41.438327      41.438327      82.876653          16040 
    126000   3390.8832      602263.76      861.95475      602570.15      603286.19      600934.94      1465.422      -968.0227       3887.9301      7029.9908      7630.8721      14660.863      142180.39      41.425704      41.425704      82.851409          16040 
    127000   3388.9751      603924.89      869.37469      605895.11      603452.13      602427.44      2758.2661      3414.8713      946.9712       7026.035       7687.2021      14713.237      142147.12      41.422473      41.422473      82.844945          16040 
    128000   3387.9862      594691.35      876.79622      595584.61      592573.35      595916.08      1311.2264     -912.61048      243.50512      7023.9848      7512.4281      14536.413      142424.82      41.44943       41.44943       82.898859          16040 
    129000   3417.3082      603066.77      884.22411      604333.94      601927.64      602938.72      3269.0919     -2091.9012     -1699.8452      7084.7753      7647.3389      14732.114      142120.27      41.419865      41.419865      82.839729          16040 
    130000   3395.5823      600793.63      891.65373      599618.91      602766.95      599995.04      538.18347     -2698.9518     -3336.0334      7039.733       7584.9509      14624.684      142200.71      41.427677      41.427677      82.855355          16040 
    131000   3395.0376      598364.44      899.07758      596778.5       600578.08      597736.74      1601.0549      580.79491      3445.6555      7038.6037      7627.1496      14665.753      142307.38      41.438034      41.438034      82.876068          16040 
    132000   3362.753       601585.87      906.50063      600373.87      602995.71      601388.02     -2097.2942     -598.1137       2680.2253      6971.6711      7724.2034      14695.875      142096.26      41.417532      41.417532      82.835064          16040 
    133000   3357.7988      598316.12      913.93177      599433.92      599275.87      596238.57     -6331.3893      906.20387      3484.2468      6961.4002      7714.1717      14675.572      142292.97      41.436636      41.436636      82.873271          16040 
    134000   3416.1101      596610.24      921.3533       597752.71      596139.7       595938.31     -1171.4829     -454.64704      3958.6123      7082.2912      7530.3093      14612.601      142357.21      41.44287       41.44287       82.88574           16040 
    135000   3441.9723      605043.88      928.77607      605723.7       604630.18      604777.75     -376.94419      1776.7903     -677.83226      7135.9089      7654.6764      14790.585      142127.82      41.420598      41.420598      82.841197          16040 
    136000   3406.3315      599613.03      936.19519      600497.16      600510.51      597831.42     -1876.3991      3291.2431      453.07445      7062.0183      7577.4645      14639.483      142258.15      41.433255      41.433255      82.866509          16040 
    137000   3405.4455      596651.41      943.6174       596691.54      597275.08      595987.61      1487.3216      2912.2792      1392.4677      7060.1813      7641.7344      14701.916      142327.43      41.43998       41.43998       82.879961          16040 
    138000   3409.6372      603243.86      951.0374       602370.18      603589.79      603771.6      -1751.2281      1660.345       125.71993      7068.8717      7608.7259      14677.598      142131.09      41.420916      41.420916      82.841831          16040 
    139000   3378.098       595407.76      958.46005      595747.18      595223.34      595252.75     -504.94949     -423.43407      1934.3332      7003.4844      7533.3387      14536.823      142424.49      41.449397      41.449397      82.898795          16040 
    140000   3356.4958      604367.24      965.88202      605155.68      603738.87      604207.18     -1553.247       639.37729      1606.3185      6958.6987      7740.8418      14699.541      142068.46      41.414831      41.414831      82.829661          16040 
    141000   3365.0455      598918.94      973.30216      598772.63      599696.87      598287.33      2293.5486      1636.6842     -3810.773       6976.424       7656.6949      14633.119      142256.86      41.43313       41.43313       82.86626           16040 
    142000   3369.8693      598440.86      980.72584      598135.04      598937.44      598250.09     -1478.5775     -2892.0096      171.86235      6986.4248      7604.4933      14590.918      142303.12      41.43762       41.43762       82.875241          16040 
    143000   3415.8559      606044.57      988.14719      606194.73      606156.45      605782.52     -3363.8388     -331.23357      90.90971       7081.7642      7748.6989      14830.463      142100.33      41.417928      41.417928      82.835855          16040 
    144000   3395.0575      597330.56      995.56877      596905.92      598362         596723.76      680.2033      -437.23232     -1955.505       7038.6449      7552.6906      14591.336      142350.26      41.442196      41.442196      82.884392          16040 
    145000   3446.7226      600565.83      1002.9901      602590.2       600687.74      598419.56      3693.9827      1023.2813     -1199.6816      7145.7573      7592.7484      14738.506      142175.21      41.425201      41.425201      82.850402          16040 
    146000   3385.709       599230.54      1010.417       599676.11      598828.03      599187.47     -1139.8945     -500.50392     -1544.7243      7019.2637      7653.8523      14673.116      142228.13      41.430341      41.430341      82.860681          16040 
    147000   3388.2779      597238.66      1017.8386      595473.44      598666.72      597575.8      -181.88025      1874.843      -2454.6229      7024.5895      7604.8908      14629.48       142310.84      41.43837       41.43837       82.87674           16040 
    148000   3381.9539      606635.14      1025.2652      606417.72      605820.25      607667.46     -1532.5006     -1741.6993     -1959.7349      7011.4785      7715.346       14726.825      141970.9       41.405349      41.405349      82.810698          16040 
    149000   3377.7627      594231.44      1032.6868      594419.38      593781.68      594493.26      640.17632      2447.7768      1489.557       7002.7893      7532.8165      14535.606      142395.16      41.446552      41.446552      82.893105          16040 
    150000   3436.3614      601739.91      1040.1084      602102.83      600995.53      602121.37     -324.97824     -774.607        1287.823       7124.2764      7607.0401      14731.317      142173.89      41.425073      41.425073      82.850147          16040 
    151000   3428.5775      603641.09      1047.5362      603987.76      605081.34      601854.18     -2268.0513      2503.2273     -66.512512      7108.1388      7665.0626      14773.201      142172.06      41.424895      41.424895      82.84979           16040 
    152000   3396.6007      598244.56      1054.9577      599342.43      597335.7       598055.54     -1722.6381     -4756.7761     -460.02311      7041.8444      7540.7153      14582.56       142313.79      41.438656      41.438656      82.877312          16040 
    153000   3414.4497      603073.22      1062.3806      602280.57      603794.79      603144.29      611.39383      1269.0635     -674.76841      7078.849       7675.6611      14754.51       142093.7       41.417283      41.417283      82.834566          16040 
    154000   3364.3757      600622.51      1069.8006      602013.44      599157.14      600696.95     -478.81712      347.07886     -796.81575      6975.0353      7615.8562      14590.892      142190.84      41.426719      41.426719      82.853438          16040 
    155000   3395.0762      596427.63      1077.2202      596496.69      598327.6       594458.6      -329.50137     -3052.7374     -3543.0577      7038.6837      7636.1379      14674.822      142368.47      41.443963      41.443963      82.887925          16040 
    156000   3403.9789      601983.04      1084.6389      603222.86      602506.82      600219.45     -4601.3753      1600.0449     -3071.6792      7057.1409      7617.8918      14675.033      142179.81      41.425648      41.425648      82.851297          16040 
    157000   3406.2953      600990.28      1092.0621      599895.39      602131.16      600944.29     -2529.031      -1422.4251     -4450.5927      7061.9432      7627.1409      14689.084      142213.46      41.428916      41.428916      82.857832          16040 
    158000   3386.9739      591795.24      1099.4848      590116.44      593713.37      591555.9      -1318.3592      1629.6155     -1278.211       7021.8861      7566.3526      14588.239      142535.76      41.460189      41.460189      82.920378          16040 
    159000   3397.2122      601940.3       1106.9069      602285.41      602386.87      601148.62      1537.7448      686.41082      838.88657      7043.1122      7708.2585      14751.371      142179.33      41.425601      41.425601      82.851203          16040 
    160000   3385.5907      596653.02      1114.339       596526.38      597647.72      595784.95      1220.5704     -2237.4101     -2781.002       7019.0184      7563.6284      14582.647      142318.87      41.43915       41.43915       82.878299          16040 
    161000   3406.9382      598996.65      1121.7762      599027.98      597368.74      600593.23     -1672.9122      1707.4924      4097.9367      7063.2761      7553.1746      14616.451      142317.46      41.439012      41.439012      82.878024          16040 
    162000   3390.0574      603260.73      1129.2094      604196.96      602378.33      603206.91     -3540.6156     -2377.3485      1928.2337      7028.2788      7594.5732      14622.852      142146.54      41.422417      41.422417      82.844834          16040 
    163000   3413.5831      597440.87      1136.6406      597185.94      596072.86      599063.82     -942.06288      1255.0988      1099.9397      7077.0523      7644.6723      14721.725      142387.01      41.445761      41.445761      82.891522          16040 
    164000   3417.8749      597222.66      1144.0618      598356.94      596565.5       596745.55     -2430.9471     -2335.8806     -3206.5832      7085.95        7503.7552      14589.705      142294.84      41.436817      41.436817      82.873633          16040 
    165000   3403.5295      602239.74      1151.484       601183.22      601464.43      604071.57      2394.8619      1577.8704      364.77324      7056.2092      7644.8243      14701.033      142097.01      41.417605      41.417605      82.835211          16040 
    166000   3402.2933      598197.99      1158.9038      598241.23      598970.67      597382.07      150.41295     -1264.515       3226.1564      7053.6462      7631.4224      14685.069      142329.27      41.440159      41.440159      82.880317          16040 
    167000   3421.2397      597588.59      1166.3288      598193.08      598311.95      596260.73     -4133.0091      1623.7577      4647.8863      7092.9261      7568.9424      14661.869      142358.76      41.44302       41.44302       82.886041          16040 
    168000   3402.9848      602470.42      1173.7509      605169.96      600092.85      602148.46      2954.1241     -2829.3987     -1217.925       7055.0798      7620.7249      14675.805      142117.53      41.419599      41.419599      82.839197          16040 
    169000   3394.7449      595549.97      1181.1711      598032.15      595164.39      593453.37     -1968.8106      3697.6424     -968.70536      7037.9968      7519.7512      14557.748      142414.63      41.448441      41.448441      82.896882          16040 
    170000   3427.2971      603191.82      1188.588       601983.08      602404.95      605187.44      2276.8783     -1513.4445     -1496.9926      7105.4842      7643.3104      14748.795      142151.78      41.422926      41.422926      82.845852          16040 
    171000   3368.4074      600242.43      1196.011       600148.9       602095         598483.4       587.45012     -1366.4086      487.26694      6983.3938      7583.5691      14566.963      142215.09      41.429075      41.429075      82.858149          16040 
    172000   3389.7211      596594.62      1203.433       595538.47      596948.87      597296.53      2119.2288     -185.57266     -1287.4336      7027.5815      7613.8789      14641.46       142354.47      41.442604      41.442604      82.885208          16040 
    173000   3343.1534      601694.95      1210.8565      600310.57      602623.32      602150.96      138.98073      4361.0976      2658.2228      6931.0372      7581.0567      14512.094      142138.36      41.421622      41.421622      82.843244          16040 
    174000   3398.6323      601993.32      1218.2756      600151.23      602009.55      603819.2      -2383.2964      771.10331     -309.39229      7046.0563      7676.5819      14722.638      142161.07      41.423828      41.423828      82.847656          16040 
    175000   3368.0308      594875.84      1225.6928      594592.71      594527.55      595507.27     -3225.177       2335.4568     -1715.8389      6982.6132      7534.5951      14517.208      142401.69      41.447186      41.447186      82.894371          16040 
    176000   3431.9949      604203.59      1233.1108      606682.74      600756.28      605171.75     -2448.6295      1225.3        -784.99268      7115.2238      7627.9308      14743.155      142107.2       41.418595      41.418595      82.83719           16040 
    177000   3384.6671      601073.65      1240.5322      601084.64      601072.54      601063.77     -1826.0861     -2900.6713      3908.9779      7017.1035      7595.6432      14612.747      142175.52      41.425231      41.425231      82.850463          16040 
    178000   3440.3702      599106.69      1247.9594      599237.26      598325.65      599757.15      2379.6457      2791.275      -1592.4405      7132.5874      7536.9712      14669.559      142266.9       41.434105      41.434105      82.868209          16040 
    179000   3399.6076      604734.96      1255.3777      605670.91      603345.62      605188.35     -710.75143      1393.3812      2508.608       7048.0783      7623.1838      14671.262      142104.12      41.418296      41.418296      82.836592          16040 
    180000   3383.0684      592150         1262.7968      591677.97      589818.58      594953.47      379.75871      1552.5609     -919.10717      7013.789       7553.5437      14567.333      142523.35      41.458986      41.458986      82.917972          16040 
    181000   3409.75        604711.19      1270.2173      604444.74      604333.42      605355.42      5955.6187     -1596.1206      345.15862      7069.1056      7689.4969      14758.602      142073.56      41.415327      41.415327      82.830654          16040 
    182000   3432.9373      598354.87      1277.6368      599078.9       597475.81      598509.9       2726.2704     -1161.4714      2672.6522      7117.1775      7543.3832      14660.561      142297.91      41.437115      41.437115      82.87423           16040 
    183000   3404.6107      600718.55      1285.0555      601294.8       601148.29      599712.56      1260.0653     -521.15147     -2571.2755      7058.4507      7577.9612      14636.412      142248.37      41.432305      41.432305      82.86461           16040 
    184000   3417.529       602558.25      1292.4778      601603.42      602422.97      603648.35      3806.1898     -332.05006     -1192.9426      7085.233       7633.4235      14718.656      142154.39      41.42318       41.42318       82.846359          16040 
    185000   3401.1027      599029.61      1299.8986      598665.11      598364.59      600059.13     -3052.0225     -691.9329       1074.262       7051.178       7643.8208      14694.999      142274.59      41.434851      41.434851      82.869701          16040 
    186000   3398.3844      598353.73      1307.3177      596379.51      601576.46      597105.24     -1149.1105     -509.99269     -1019.3645      7045.5423      7539.4174      14584.96       142261.75      41.433605      41.433605      82.86721           16040 
    187000   3377.4061      603562.99      1314.7379      604697.26      605048.25      600943.47      752.41299     -1983.6093      3777.6193      7002.0501      7773.2227      14775.273      142128.16      41.420631      41.420631      82.841262          16040 
    188000   3352.308       594823.35      1322.1599      595793.72      595136.4       593539.92     -520.30588      3749.7801     -2265.9205      6950.0166      7617.7661      14567.783      142432.15      41.450141      41.450141      82.900283          16040 
    189000   3392.909       600079.84      1329.5923      600701.03      599853.71      599684.77      1337.0464     -264.5835      -369.84922      7034.1907      7608.815       14643.006      142285.26      41.435887      41.435887      82.871775          16040 
    190000   3408.5415      607249.43      1337.0195      606881.45      604657.17      610209.66     -70.561417     -1323.7979     -3892.2442      7066.6         7544.9012      14611.501      141984.73      41.406693      41.406693      82.813386          16040 
    191000   3401.1082      591076.12      1344.4508      589434.14      593275.5       590518.72     -743.08738     -1484.4177     -1920.0418      7051.1893      7478.1315      14529.321      142584.23      41.464889      41.464889      82.929777          16040 
    192000   3406.3185      599471.21      1351.8738      600398.06      598332.22      599683.36      862.80182      2540.7795     -2627.99        7061.9913      7548.9615      14610.953      142271.52      41.434553      41.434553      82.869106          16040 
    193000   3397.7166      603260.48      1359.3016      602172.14      603760.76      603848.54     -803.16478     -2527.3427     -1401.385       7044.1579      7554.8643      14599.022      142124.86      41.420311      41.420311      82.840622          16040 
    194000   3400.5768      597090.57      1366.7226      597565.35      597131.8       596574.55      2843.3625     -113.88054     -2490.5507      7050.0877      7486.021       14536.109      142344.81      41.441666      41.441666      82.883333          16040 
    195000   3393.9448      601543.65      1374.1418      602151.96      601457.19      601021.79      946.01524     -2753.9676      2563.2996      7036.3382      7668.0024      14704.341      142138.68      41.421653      41.421653      82.843305          16040 
    196000   3392.2301      597455.82      1381.5606      599794.7       597538.75      595034        -105.0908      -124.03133      2024.7673      7032.7831      7518.637       14551.42       142266.09      41.434026      41.434026      82.868052          16040 
    197000   3421.2291      596245.21      1388.9791      596256.28      594547.55      597931.8       3935.2174      366.83196     -1017.0515      7092.9041      7500.378       14593.282      142379.8       41.445062      41.445062      82.890123          16040 
    198000   3430.0913      603036.56      1396.3975      602367.57      603298.35      603443.76     -592.6992       1017.277       1470.3711      7111.2772      7626.8131      14738.09       142126.13      41.420434      41.420434      82.840868          16040 
    199000   3373.709       596508.11      1403.8113      595625.47      596853.13      597045.73     -1698.2386     -2151.0882     -2573.1684      6994.3853      7582.1654      14576.551      142404.3       41.447439      41.447439      82.894878          16040 
    200000   3401.7906      601418.01      1411.2352      601461.82      602575.68      600216.52     -2325.084       2203.9541     -1945.6363      7052.6041      7618.2779      14670.882      142206.85      41.428274      41.428274      82.856549          16040 
    201000   3404.1111      599364.75      1418.6527      598212.18      599359.93      600522.15      1525.3528      697.64226      2562.9475      7057.415       7585.6896      14643.105      142260.13      41.433447      41.433447      82.866894          16040 
    202000   3395.6461      592801.55      1426.0706      593474.12      593602.83      591327.71     -280.10647      101.5117       2483.3833      7039.8653      7474.8589      14514.724      142546.51      41.461231      41.461231      82.922463          16040 
    203000   3386.1395      607137.74      1433.4895      607111.72      607906.7       606394.79      1643.2528      508.8731      -967.68765      7020.1561      7712.0203      14732.176      142010.47      41.409196      41.409196      82.818391          16040 
    204000   3406.7091      599827.29      1440.9044      600356.85      598460.46      600664.55     -3279.2761      1613.6224     -2093.1678      7062.801       7560.3001      14623.101      142289.04      41.436254      41.436254      82.872508          16040 
    205000   3436.2889      596622.9       1448.3259      597879.55      597017.38      594971.76     -3319.1973      1433.1176      1564.2048      7124.126       7581.1123      14705.238      142389.33      41.445987      41.445987      82.891974          16040 
    206000   3402.8216      600495.25      1455.7595      601671         598018.09      601796.66      278.34104      563.48036     -187.66714      7054.7416      7561.4617      14616.203      142198.4       41.427453      41.427453      82.854906          16040 
    207000   3444.9166      603555.61      1463.1965      602522.3       604925.37      603219.18      3137.4965     -320.75977      3684.9325      7142.0131      7676.234       14818.247      142086.25      41.41656       41.41656       82.83312           16040 
    208000   3383.1576      595524.86      1470.6377      596747.06      592855.46      596972.07      2320.3404     -5771.9581      90.757362      7013.9741      7522.8357      14536.81       142339.54      41.441156      41.441156      82.882311          16040 
    209000   3386.0457      602241.25      1478.0715      602224.05      602965.69      601534.01      441.07046      2485.9702     -1383.0728      7019.9617      7612.4775      14632.439      142102.56      41.418144      41.418144      82.836289          16040 
    210000   3453.8381      599407.91      1485.5146      599314.69      598941.37      599967.68     -1774.379      -2222.9732     -1608.6961      7160.5091      7640.8632      14801.372      142272.38      41.434636      41.434636      82.869273          16040 
    211000   3393.244       595458.75      1492.9534      594998.49      594747.77      596629.98      693.42589     -387.41851      1349.7363      7034.8852      7476.4788      14511.364      142401.6       41.447177      41.447177      82.894354          16040 
    212000   3416.0237      606066.47      1500.3953      606502.29      606864.44      604832.68     -90.757682      1689.896       1089.3415      7082.1123      7592.2703      14674.383      142052.81      41.413311      41.413311      82.826621          16040 
    213000   3362.9639      593685.74      1507.8378      593577.96      592911.85      594567.4       427.86891     -1227.611      -653.88974      6972.1084      7526.4424      14498.551      142412.22      41.448208      41.448208      82.896415          16040 
    214000   3407.2255      604517.91      1515.2781      606417.51      603233.85      603902.37      739.36065     -533.4322      -207.64206      7063.8718      7656.0647      14719.937      142050.19      41.413055      41.413055      82.82611           16040 
    215000   3379.7528      597553.35      1522.7179      598571.04      596321.09      597767.91     -1693.1259      4059.2089     -2541.5403      7006.9152      7616.103       14623.018      142326.33      41.439873      41.439873      82.879747          16040 
    216000   3399.4534      599168.53      1530.1448      601223.59      597783.06      598498.93      354.39069     -995.98239      3672.3907      7047.7585      7574.186       14621.945      142230.39      41.43056       41.43056       82.86112           16040 
    217000   3385.3331      602353.2       1537.5664      605683.15      601245.9       600130.55      2189.8164      1594.1192      184.74362      7018.4843      7569.1006      14587.585      142113.53      41.41921       41.41921       82.838419          16040 
    218000   3401.8676      600855.11      1544.9856      599926.6       601064.13      601574.6      -800.16733     -2520.9947     -1573.7527      7052.7638      7590.5132      14643.277      142195.37      41.427159      41.427159      82.854317          16040 
    219000   3372.5217      598677.06      1552.4063      599622.32      599913.53      596495.34     -3579.3748     -767.18139      19.903603      6991.9236      7564.3234      14556.247      142203.76      41.427974      41.427974      82.855947          16040 
    220000   3384.2697      603562.32      1559.8267      605898.59      601741.65      603046.72     -1239.681       3246.8562      2760.7498      7016.2797      7691.5728      14707.853      142042.23      41.412282      41.412282      82.824564          16040 
    221000   3348.0343      593971.52      1567.2473      592752.65      594452.55      594709.36      1671.9303      1776.2946     -76.599993      6941.1564      7545.7688      14486.925      142442.93      41.451186      41.451186      82.902372          16040 
    222000   3413.6423      601566.06      1574.6653      600512.05      603643.79      600542.33      936.52404      1629.1552     -47.221071      7077.175       7620.5609      14697.736      142230.07      41.430529      41.430529      82.861057          16040 
    223000   3400.4827      602299.99      1582.086       604476.25      600664.35      601759.36     -1713.0086      110.64612      280.27478      7049.8925      7605.0374      14654.93       142133.57      41.421157      41.421157      82.842314          16040 
    224000   3406.4814      596011.4       1589.506       596441.17      596629.23      594963.79     -1072.5694     -1207.9498      1143.5179      7062.3289      7509.9361      14572.265      142328.69      41.440102      41.440102      82.880204          16040 
    225000   3379.9285      604011.41      1596.9246      603204.83      605015.7       603813.71      1969.3798     -4700.2005     -3338.7889      7007.2795      7604.0293      14611.309      142048.08      41.41285       41.41285       82.8257            16040 
    226000   3406.0697      598416.13      1604.3586      597719.7       598193.11      599335.58     -4021.8763      2977.5594      4942.6368      7061.4756      7567.7065      14629.182      142313.9       41.438667      41.438667      82.877333          16040 
    227000   3416.9588      600467.04      1611.7799      597658.08      603015.24      600727.79      1021.327      -1817.4026     -444.45376      7084.0508      7477.5403      14561.591      142213.41      41.428911      41.428911      82.857823          16040 
    228000   3399.8996      601960.46      1619.1984      601946.32      601033.37      602901.7      -464.16051      3641.4479     -2263.2472      7048.6837      7626.5753      14675.259      142194.16      41.427042      41.427042      82.854083          16040 
    229000   3399.4956      597894.09      1626.6282      598384.2       599463.78      595834.28      2247.3763     -2045.9846     -1681.4214      7047.846       7467.6886      14515.535      142329.59      41.44019       41.44019       82.88038           16040 
    230000   3418.0201      605705.39      1634.0485      603588.71      606588.46      606938.99     -3043.6235      3598.9743      3219.3456      7086.2512      7704.6287      14790.88       142069.13      41.414896      41.414896      82.829792          16040 
    231000   3398.7019      596817.2       1641.4712      595814.94      597043.05      597593.62      660.30003     -1382.1804     -3243.4323      7046.2006      7501.1077      14547.308      142362.43      41.443377      41.443377      82.886754          16040 
    232000   3380.3694      599724.5       1648.8926      599802.02      601359.26      598012.21     -477.90796      1043.1172      1634.8209      7008.1936      7602.302       14610.496      142326.37      41.439877      41.439877      82.879754          16040 
    233000   3426.603       601839.92      1656.313       602537.09      600940.18      602042.49     -5393.8169     -1402.0842     -1083.2624      7104.0452      7638.3547      14742.4        142208.93      41.428476      41.428476      82.856953          16040 
    234000   3386.8551      597790.12      1663.7298      597259.2       597568.34      598542.82     -711.56164     -4517.1237     -17.178306      7021.6398      7551.0073      14572.647      142313.42      41.43862       41.43862       82.877241          16040 
    235000   3386.876       599331.89      1671.1516      599147.11      599565.98      599282.56      2631.4091      3744.9477     -312.3441       7021.6831      7667.6589      14689.342      142264.07      41.43383       41.43383       82.86766           16040 
    236000   3416.6901      599046.86      1678.5752      601961.14      596315.36      598864.07      467.83847     -173.47497     -717.72169      7083.4938      7606.0602      14689.554      142290.61      41.436407      41.436407      82.872813          16040 
    237000   3366.9619      600070.02      1685.9915      601636.09      600304.23      598269.73      1765.3036      2246.658       1857.6182      6980.397       7577.9749      14558.372      142254.11      41.432863      41.432863      82.865727          16040 
    238000   3441.6275      603388.42      1693.4288      602839.06      602360.28      604965.93     -363.16601     -1756.967      -2285.1242      7135.194       7666.0163      14801.21       142165.02      41.424212      41.424212      82.848423          16040 
    239000   3393.1521      593829.88      1700.8624      593078.7       595251.37      593159.58      1859.8476     -967.0017       3657.7321      7034.6947      7496.3029      14530.998      142446.03      41.451487      41.451487      82.902975          16040 
    240000   3380.7161      602907.06      1708.2836      603146.17      602128.35      603446.65     -879.7376      -2116.9755     -15.296147      7008.9123      7545.6909      14554.603      142100.99      41.417991      41.417991      82.835982          16040 
    241000   3430.6949      600771.34      1715.7058      601504.42      600076.58      600733.01      1036.2851      140.1069      -4787.164       7112.5285      7567.8969      14680.425      142175.03      41.425184      41.425184      82.850368          16040 
    242000   3411.2886      598284.4       1723.1328      597073.78      597097.04      600682.39      3449.1102     -1943.5117     -647.14248      7072.2954      7490.0532      14562.349      142308.46      41.438139      41.438139      82.876278          16040 
    243000   3422.4336      600366.3       1730.5552      600264.56      600053.19      600781.14     -298.17309     -1908.711       742.86813      7095.4012      7562.4009      14657.802      142241.51      41.43164       41.43164       82.86328           16040 
    244000   3367.6097      598206.27      1737.9798      597198.54      597388.07      600032.2      -2265.6562     -214.27059     -3656.0938      6981.7402      7490.6003      14472.34       142260.2       41.433454      41.433454      82.866909          16040 
    245000   3405.7176      597241.91      1745.4054      595988.23      598066.36      597671.12     -2400.7817      2743.726       4000.368       7060.7454      7558.6368      14619.382      142295.04      41.436836      41.436836      82.873672          16040 
    246000   3389.7015      605591.87      1752.8351      605310.08      606859.93      604605.59      2358.0687     -3300.1672      1180.8909      7027.5408      7692.9123      14720.453      142144.88      41.422256      41.422256      82.844512          16040 
    247000   3438.1201      595203.7       1760.276       596632.14      595246.87      593732.09      2253.478       2874.2091     -972.77481      7127.9224      7461.0345      14588.957      142434.95      41.450412      41.450412      82.900825          16040 
    248000   3372.8355      603943.07      1767.6984      602879.42      603385.55      605564.23     -288.46897     -1786.4593      1806.1586      6992.5743      7567.6778      14560.252      142094.11      41.417323      41.417323      82.834646          16040 
    249000   3426.4466      600238.59      1775.128       599357.3       600836.5       600521.97      577.37168      683.11719      857.93144      7103.721       7514.7308      14618.452      142247.03      41.432176      41.432176      82.864352          16040 
    250000   3371.9899      594038.58      1782.5624      595738.83      592845.58      593531.32      550.05456      1202.6736      1197.502       6990.8212      7483.6706      14474.492      142403.87      41.447397      41.447397      82.894794          16040 
    251000   3403.743       605985.15      1790.0034      604984.37      606128.57      606842.5       2402.3258     -3050.9416      272.35007      7056.6517      7674.1299      14730.782      142058.29      41.413842      41.413842      82.827685          16040 
    252000   3415.602       596433.1       1797.4394      595690.36      598308.48      595300.47     -1095.6912      4211.1895     -2925.52        7081.2379      7479.0308      14560.269      142326.26      41.439866      41.439866      82.879732          16040 
    253000   3432.0121      599016.76      1804.8828      599042.6       599981.62      598026.08      3971.3013     -1290.3479     -736.44628      7115.2593      7609.8195      14725.079      142312.3       41.438512      41.438512      82.877024          16040 
    254000   3383.1985      598813.98      1812.3212      599101.5       598495.1       598845.35     -937.83103     -1345.49       -893.95189      7014.0588      7521.7495      14535.808      142301.22      41.437436      41.437436      82.874873          16040 
    255000   3424.5078      599474.17      1819.7559      599475.49      602230.02      596717.01     -3930.6524     -296.28983     -2400.9608      7099.7015      7533.9248      14633.626      142294.43      41.436777      41.436777      82.873554          16040 
    256000   3427.3655      603909.6       1827.1946      602498.38      604651.78      604578.62     -3527.1171     -1693.3938      3639.8111      7105.626       7611.7499      14717.376      142155.75      41.423312      41.423312      82.846623          16040 
    257000   3394.1841      596187.31      1834.6371      595451.69      597799.8       595310.44     -1191.0147      281.51903      3117.9861      7036.8342      7479.3052      14516.139      142388.94      41.445949      41.445949      82.891899          16040 
    258000   3421.6935      602146.96      1842.0741      603457.8       600909.04      602074.03      909.26596      711.37508      1243.4098      7093.8668      7604.7352      14698.602      142203.94      41.427992      41.427992      82.855983          16040 
    259000   3404.1928      601902.55      1849.5146      603138.8       600517.17      602051.68      3013.6528      5371.7544      1544.8319      7057.5843      7607.7135      14665.298      142208.15      41.4284        41.4284        82.8568            16040 
    260000   3395.8421      598027.27      1856.9584      598416.58      597489.54      598175.68      205.01417      6664.726      -515.24521      7040.2715      7487.6293      14527.901      142286.98      41.436054      41.436054      82.872108          16040 
    261000   3415.3136      601109.98      1864.4017      602294.2       599016.6       602019.13      243.6458       784.87153     -1323.9788      7080.6401      7599.5987      14680.239      142239.52      41.431446      41.431446      82.862893          16040 
    262000   3364.4384      599673.73      1871.8467      601572.58      597484.44      599964.17     -5252.8538     -3435.5926     -2006.1663      6975.1654      7506.8445      14482.01       142207.71      41.428358      41.428358      82.856715          16040 
    263000   3410.5727      601815.68      1879.2902      601137.17      602295.5       602014.38     -2068.8314      2896.5628      2314.8009      7070.8112      7598.7384      14669.55       142182.89      41.425947      41.425947      82.851893          16040 
    264000   3394.8041      600434.54      1886.729       599946.02      601304.34      600053.27     -2397.9763      773.86684     -576.47163      7038.1196      7506.7617      14544.881      142151.08      41.422857      41.422857      82.845715          16040 
    265000   3411.0412      595026.72      1894.1759      596469.07      593824.7       594786.38     -549.80374      149.72798     -1036.6546      7071.7824      7475.5585      14547.341      142407.24      41.447724      41.447724      82.895448          16040 
    266000   3404.026       603916         1901.6133      602959.55      604302.03      604486.44      4435.1965     -799.67409      2240.2668      7057.2385      7600.6742      14657.913      142096.03      41.41751       41.41751       82.835019          16040 
    267000   3399.5412      597503.39      1909.0514      597609.3       596496.6       598404.28      2044.784      -1744.9559      1736.989       7047.9406      7501.1989      14549.14       142289.84      41.436332      41.436332      82.872663          16040 
    268000   3463.5996      599122.64      1916.4897      600478.9       597169.04      599719.99      977.56891      1770.8185      1874.3902      7180.7466      7638.3966      14819.143      142284.86      41.435848      41.435848      82.871696          16040 
    269000   3396.2832      603504.96      1923.9201      603687.01      603605.98      603221.88      3557.5471      2715.5046     -1506.2395      7041.186       7597.0729      14638.259      142056.27      41.413646      41.413646      82.827292          16040 
    270000   3405.7325      590447.1       1931.3465      589791.08      588017.34      593532.86      2501.8314     -4314.5334      2134.1412      7060.7765      7507.3646      14568.141      142611.29      41.467511      41.467511      82.935023          16040 
    271000   3393.898       603912.37      1938.7817      603553.14      604916.63      603267.35     -1390.1086     -154.7242       1928.0798      7036.2411      7590.4416      14626.683      142098.82      41.417781      41.417781      82.835562          16040 
    272000   3427.1607      600781.28      1946.2266      601597.54      600113.25      600633.04     -752.28941      674.65952      3465.8823      7105.2014      7551.6785      14656.88       142229.38      41.430461      41.430461      82.860923          16040 
    273000   3364.1779      595912.02      1953.6677      596011.57      596497.51      595226.98     -579.79582     -902.58391      648.82772      6974.6253      7506.8759      14481.501      142371.67      41.444273      41.444273      82.888546          16040 
    274000   3415.2053      605364.5       1961.1106      604149.77      607205.44      604738.3       1474.0016     -775.60444      227.7597       7080.4155      7617.723       14698.139      142040.82      41.412145      41.412145      82.82429           16040 
    275000   3407.5139      598765.16      1968.5553      599012.62      597860.21      599422.66      1097.3999      340.3985       1078.5497      7064.4696      7481.6745      14546.144      142249.28      41.432394      41.432394      82.864787          16040 
    276000   3385.3736      596713.49      1975.9983      596842.07      596784         596514.4      -2474.8441      2744.8714     -1700.5986      7018.5683      7538.9617      14557.53       142334.01      41.440619      41.440619      82.881237          16040 
    277000   3374.9824      607112.03      1983.4424      606457.47      605838.52      609040.1      -1363.5359      78.766547     -22.845355      6997.0251      7652.9939      14650.019      141876.23      41.396143      41.396143      82.792286          16040 
    278000   3405.1913      594634.28      1990.8709      593459.55      593905.82      596537.49     -3953.1307     -433.75951     -578.84339      7059.6544      7509.3135      14568.968      142407.62      41.447761      41.447761      82.895523          16040 
    279000   3422.6841      601331.91      1998.2875      602478.45      600507.51      601009.77      3457.0829      3118.7522     -1290.9916      7095.9206      7497.149       14593.07       142242.55      41.431741      41.431741      82.863482          16040 
    280000   3370.2298      600463.72      2005.7128      601175.03      599999.55      600216.56     -1041.7226      3203.3161     -2491.2306      6987.1721      7469.1324      14456.305      142180.6       41.425724      41.425724      82.851449          16040 
    281000   3408.8287      596798.72      2013.1461      598930.82      595619.49      595845.84     -1605.6738     -723.37268      1907.9006      7067.1955      7517.0864      14584.282      142341.16      41.441313      41.441313      82.882625          16040 
    282000   3391.5587      602398.48      2020.5925      603147.62      601875.64      602172.19     -2755.1785     -1380.7957      77.934197      7031.3912      7552.0649      14583.456      142107.59      41.418633      41.418633      82.837266          16040 
    283000   3428.9003      600255.34      2028.0261      602065.74      598209.49      600490.78     -1157.0089      5777.8301     -2133.4606      7108.808       7664.3858      14773.194      142228.53      41.430379      41.430379      82.860758          16040 
    284000   3389.8274      597200.56      2035.4592      595940.64      596188.7       599472.35     -1617.1885      2979.4431     -2018.6658      7027.8019      7471.0157      14498.818      142362.83      41.443415      41.443415      82.88683           16040 
    285000   3452.1178      604237.55      2042.8798      605599.46      602956.99      604156.21     -216.15381      2171.3396      1572.0735      7156.9426      7573.6889      14730.631      142126.84      41.420503      41.420503      82.841006          16040 
    286000   3399.4983      595266.79      2050.3163      595929.37      594993.32      594877.69     -2333.3703      1498.4012      2050.0337      7047.8517      7484.0677      14531.919      142397.64      41.446793      41.446793      82.893585          16040 
[...]
   3930000   3582.7178      611243.98      7050.725       607829.8       613304.96      612597.17     -967.17561     -173.55466     -885.51953      7427.7029      13439.04       20866.742      140624.66      41.371136      41.371136      82.161167          16040 
   3931000   3560.5571      605268.38      7058.443       606517.13      604101.23      605186.78     -1284.8275      829.60038     -78.053684      7381.7592      13374.48       20756.239      140912.71      41.399364      41.399364      82.217226          16040 
   3932000   3571.7688      598698.37      7066.1462      600800.37      600450.21      594844.54      1915.2809      2009.6234     -1718.4303      7405.0034      13318.214      20723.217      140999.56      41.407868      41.407868      82.234115          16040 
   3933000   3574.9002      600355.18      7073.8393      604383.23      598619.79      598062.52      3691.5225      3588.1372     -237.37921      7411.4954      13311.532      20723.028      140999.27      41.40784       41.40784       82.234059          16040 
   3934000   3549.8318      599186.49      7081.5387      599701.13      597740.94      600117.41      4770.0652     -602.84408     -1396.4082      7359.5236      13288.883      20648.406      141195.38      41.427028      41.427028      82.272166          16040 
   3935000   3577.2722      594072.57      7089.2412      596955.81      594359.69      590902.21      106.42541      1495.3726      7286.3205      7416.413       13204.669      20621.082      141268.85      41.434212      41.434212      82.286433          16040 
   3936000   3547.2645      608311.4       7096.9592      609554.56      608757.55      606622.09     -1009.2514      3767.0034      1949.6287      7354.2011      13438.394      20792.595      140809.23      41.389228      41.389228      82.197096          16040 
   3937000   3540.839       597867.24      7104.6716      601210.95      595988.75      596402.03     -202.01984      2092.384      -2608.4589      7340.8797      13329.018      20669.898      141135.43      41.421164      41.421164      82.26052           16040 
   3938000   3576.7124      604297.04      7112.3839      603062.46      606696.37      603132.29      2042.7014      459.90142      4701.1717      7415.2526      13324.841      20740.094      140946.45      41.402669      41.402669      82.223789          16040 
   3939000   3580.8373      602552.35      7120.0897      602599.28      607820.19      597237.57     -375.76654      3067.9307     -482.61283      7423.8044      13293.024      20716.829      141005.58      41.408457      41.408457      82.235285          16040 
   3940000   3567.2269      597415.39      7127.7785      600239.84      597840.08      594166.24     -1384.6818     -2457.8631      1330.5822      7395.5872      13269.503      20665.09       141143.05      41.42191       41.42191       82.262002          16040 
   3941000   3543.7796      604120.72      7135.4792      600509.06      605913.3       605939.81      168.89709     -1298.1575      1354.0785      7346.9762      13398.106      20745.082      140929.21      41.40098       41.40098       82.220436          16040 
   3942000   3579.9695      604480.72      7143.1636      606098.93      606382.97      600960.27      2966.5807      4693.2065     -3395.8727      7422.0052      13347.083      20769.088      140866.71      41.394859      41.394859      82.20828           16040 
   3943000   3557.0677      596104.69      7150.8187      597148.77      596399.6       594765.7       651.81525      2186.7441     -2048.6145      7374.5252      13281.995      20656.52       141163.94      41.423953      41.423953      82.266058          16040 
   3944000   3532.7891      597402.66      7158.4954      599740.01      598074.04      594393.94     -2814.2992     -4908.4608      3813.0801      7324.1906      13310.601      20634.792      141221.07      41.42954       41.42954       82.277155          16040 
   3945000   3570.7892      599120.53      7166.1734      603191.85      598079.88      596089.87     -1965.7608      588.48146     -853.98305      7402.9726      13292.549      20695.522      141058.55      41.413642      41.413642      82.245581          16040 
   3946000   3577.7472      605081.57      7173.8337      606014.51      604026.84      605203.35     -5495.1245      4757.1943     -302.1638       7417.3978      13382.39       20799.788      140781.88      41.386548      41.386548      82.191775          16040 
   3947000   3562.0154      602791.95      7181.5327      602071.48      602899.66      603404.71     -9.4165014     -5009.6282      1532.9451      7384.7827      13376.644      20761.426      140882.7       41.396425      41.396425      82.211391          16040 
   3948000   3533.1687      600276.86      7189.1942      600947.06      599733.29      600150.25      1534.0399     -1256.4345     -4437.4412      7324.9776      13327.238      20652.215      141172.02      41.424744      41.424744      82.267629          16040 
   3949000   3581.6329      600376.31      7196.9057      602708.4       596457.59      601962.95     -3503.8945      3.1950976      302.29871      7425.4537      13275.659      20701.113      141039.89      41.411816      41.411816      82.241955          16040 
   3950000   3561.4642      597881.97      7204.5761      597647.32      599839.02      596159.57      1099.7053      1661.1252     -5861.7858      7383.6398      13305.369      20689.009      141071.55      41.414914      41.414914      82.248109          16040 
   3951000   3579.9854      601406.58      7212.2796      601386.45      600571.27      602262.01     -1885.2855     -240.60942     -2986.1346      7422.0381      13288.722      20710.76       141013.31      41.409214      41.409214      82.236789          16040 
   3952000   3544.0627      600878.66      7219.9941      598927.89      601806.3       601901.79      1163.7695      992.0027       1356.9127      7347.5631      13306.489      20654.052      141165.07      41.424064      41.424064      82.266279          16040 
   3953000   3541.2265      593320.64      7227.6665      596953.82      591724.69      591283.43     -504.48134      6443.3662      741.08859      7341.6831      13298.033      20639.716      141203.5       41.427822      41.427822      82.273743          16040 
   3954000   3608.474       602633.73      7235.3227      605383.58      602190.76      600326.85      459.70219      2069.7387      9.8302279      7481.1007      13251.344      20732.445      140955.11      41.403516      41.403516      82.225473          16040 
   3955000   3564.6829      601659.06      7242.9632      601235         601500.39      602241.79      3315.5419     -3507.1985     -105.35304      7390.3129      13362.985      20753.297      140900.5       41.398168      41.398168      82.214852          16040 
   3956000   3563.6531      603509.53      7250.6447      602534.06      607089.29      600905.22     -37.670441      5388.647      -2127.0412      7388.1779      13359.994      20748.172      140912.85      41.399378      41.399378      82.217255          16040 
   3957000   3572.1467      595041.74      7258.3641      595718.28      594465.69      594941.25      2512.8916      4825.6275      1197.1496      7405.787       13174.392      20580.179      141362.86      41.443401      41.443401      82.304683          16040 
   3958000   3607.6635      599566.97      7266.0433      604326.83      600728.84      593645.24      854.84335     -3140.2588     -4316.5023      7479.4204      13220.253      20699.673      141042.15      41.412036      41.412036      82.242393          16040 
   3959000   3580.936       601659.11      7273.6962      604206.27      601161.5       599609.56      3595.2449     -2805.9431     -422.23329      7424.009       13282.973      20706.982      141021.76      41.410041      41.410041      82.23843           16040 
   3960000   3589.1456      609535.47      7281.3486      611674.14      609489.7       607442.56      1938.5311     -6179.1975      2029.4317      7441.0291      13374.111      20815.14       140734.3       41.381885      41.381885      82.182514          16040 
   3961000   3575.6883      601160.54      7288.9956      599322.78      605997.77      598161.08      1513.8136      3186.2947     -919.63886      7413.1293      13338.502      20751.631      140901.99      41.398315      41.398315      82.215143          16040 
   3962000   3534.6069      596530.02      7296.6966      596965.41      598682.35      593942.29     -609.47747     -5739.0315     -1512.9538      7327.9594      13288.667      20616.627      141261.95      41.433537      41.433537      82.285094          16040 
   3963000   3569.2738      600500.23      7304.3966      603602.04      601228.46      596670.19     -645.08619     -1683.0828     -2862.5262      7399.8309      13335.344      20735.174      140944.93      41.40252       41.40252       82.223493          16040 
   3964000   3559.6968      602615.6       7312.0364      601460.23      605272.7       601113.87      1063.0841      2933.2895     -2149.2277      7379.9758      13386.69       20766.666      140861.51      41.394349      41.394349      82.207268          16040 
   3965000   3582.0328      597546.7       7319.685       598848.21      596225.45      597566.45      624.04975     -1484.2423     -3110.2409      7426.2828      13296.08       20722.363      140980.25      41.405977      41.405977      82.23036           16040 
   3966000   3582.6101      598450.15      7327.3171      599141.33      598606.79      597602.32     -701.81912     -151.56751     -4714.2442      7427.4796      13259.551      20687.031      141073.04      41.41506       41.41506       82.248398          16040 
   3967000   3561.0814      607092.94      7334.9843      608415.38      609349.73      603513.72      1111.3508      675.69001     -1340.3455      7382.8463      13404.991      20787.837      140804.06      41.388721      41.388721      82.19609           16040 
   3968000   3528.1833      602165.13      7342.6512      602279.21      600409.96      603806.22      2225.7718     -1746.0684      2678.7361      7314.6419      13362.751      20677.393      141098.5       41.41755       41.41755       82.253344          16040 
   3969000   3549.6783      598156.61      7350.3223      600285.13      600235.69      593949.02      2831.2919     -7758.478      -963.66148      7359.2054      13335.713      20694.918      141050.97      41.4129        41.4129        82.244109          16040 
   3970000   3553.624       602211.29      7358.034       602330.02      603276.7       601027.16     -2654.4606      887.43957     -354.1643       7367.3856      13354.709      20722.094      140978.09      41.405766      41.405766      82.229941          16040 
   3971000   3589.3522      597404.88      7365.7001      597741.21      597118.03      597355.41     -7185.6136      5677.5255      2174.9028      7441.4574      13213.399      20654.856      141154.94      41.423073      41.423073      82.264311          16040 
   3972000   3577.5892      598987.76      7373.3384      601179.92      597927.09      597856.26      5305.3312     -4234.9309     -4505.0257      7417.0703      13230.369      20647.439      141172.89      41.424828      41.424828      82.267797          16040 
   3973000   3592.8861      599438.62      7380.9823      599268.51      597629.61      601417.75      3779.4631     -502.62504     -389.03971      7448.7839      13218.184      20666.968      141121.38      41.419789      41.419789      82.257791          16040 
   3974000   3571.8319      607400.96      7388.6288      610907.18      606340.07      604955.65      3106.1178      7622.728       2708.1904      7405.1342      13354.024      20759.158      140873.67      41.395541      41.395541      82.209634          16040 
   3975000   3608.5719      598639.02      7396.3145      599489.99      598805.07      597622         882.65097     -606.84263      588.87612      7481.3039      13167.473      20648.777      141166         41.424154      41.424154      82.266458          16040 
   3976000   3583.0644      598600.73      7404.0313      597311.51      598915.2       599575.47      2303.5205     -2829.8058     -5394.6342      7428.4215      13226.836      20655.257      141147.47      41.422342      41.422342      82.262859          16040 
   3977000   3607.0353      605028.29      7411.769       607046.81      604396.12      603641.94      90.565852     -736.20269     -1567.6925      7478.118       13273.103      20751.221      140889.83      41.397124      41.397124      82.212777          16040 
   3978000   3555.6138      602618.91      7419.4172      602391.1       602977.97      602487.68     -2464.1268      1616.8144     -1372.9666      7371.5108      13300.476      20671.987      141100.82      41.417778      41.417778      82.253796          16040 
   3979000   3588.0142      600746.75      7427.0725      600563.01      602367.45      599309.79      707.51824     -176.61438     -1179.5159      7438.6835      13208.762      20647.446      141165.31      41.424087      41.424087      82.266324          16040 
   3980000   3608.1441      600692.96      7434.707       602549.67      603040.8       596488.41      1597.3722     -413.86684     -7520.4796      7480.4168      13224.836      20705.253      141008.98      41.40879       41.40879       82.235947          16040 
   3981000   3571.423       595723.48      7442.35        598054.55      593141.73      595974.17     -1305.4119     -3646.8235      1518.9441      7404.2865      13174.484      20578.771      141345.93      41.441746      41.441746      82.301396          16040 
   3982000   3626.6285      604983.24      7450.0173      606652.77      606884.33      601412.62      294.94621     -2856.2794     -2172.1426      7518.7387      13211.192      20729.931      140940.86      41.402121      41.402121      82.222701          16040 
   3983000   3575.0661      604428.35      7457.7221      605920.52      605772.1       601592.44     -936.93625     -2367.153      -2567.2136      7411.8395      13345.973      20757.812      140868.18      41.395003      41.395003      82.208566          16040 
   3984000   3552.0926      597464.33      7465.4617      597199.52      597090.04      598103.44     -913.28558     -4417.4267     -3492.8273      7364.2107      13262.617      20626.828      141215.94      41.429039      41.429039      82.276159          16040 
   3985000   3572.2092      599143.53      7473.1261      596474.31      604249.68      596706.59      1603.8831     -705.89503      463.48334      7405.9165      13284.889      20690.805      141042.35      41.412056      41.412056      82.242432          16040 
   3986000   3570.6688      596495.45      7480.7776      597205.37      594348.68      597932.31      2622.0321     -474.53407     -5186.5065      7402.7229      13216.898      20619.621      141232.18      41.430627      41.430627      82.279313          16040 
   3987000   3578.8718      599110.62      7488.4339      599914.09      600845.34      596572.43      1360.9312     -3955.2118      495.38332      7419.7295      13253.734      20673.463      141086.7       41.416396      41.416396      82.251052          16040 
   3988000   3600.7905      599065.76      7496.093       598963.86      600579.95      597653.46      4441.9301      729.4439       1388.7257      7465.1713      13223.237      20688.408      141045.83      41.412397      41.412397      82.24311           16040 
   3989000   3553.2993      600175.27      7503.7658      602083.13      598420.51      600022.17     -535.90035     -3634.1904     -188.54503      7366.7123      13294.147      20660.859      141118.49      41.419507      41.419507      82.257229          16040 
   3990000   3576.1564      601400.99      7511.4462      602679.21      601030.01      600493.74     -2093.898      -2930.3086     -4883.2473      7414.0998      13313.231      20727.331      140939.27      41.401966      41.401966      82.222393          16040 
   3991000   3544.2524      593046.01      7519.1176      594771.75      589833.62      594532.65      452.16604     -2650.371       428.10534      7347.9564      13294.096      20642.052      141166.88      41.42424       41.42424       82.266629          16040 
   3992000   3529.7057      598819.42      7526.7924      600730.19      597866.82      597861.25      2538.9503     -4021.271       400.38773      7317.798       13381.127      20698.925      141013.45      41.409228      41.409228      82.236815          16040 
   3993000   3567.0031      605032.8       7534.4648      606699.88      602299.24      606099.28     -1816.291      -2875.4233     -584.96991      7395.1231      13360          20755.123      140861.34      41.394333      41.394333      82.207236          16040 
   3994000   3519.6184      595876.09      7542.2115      595952.69      598614.85      593060.72     -150.33219      2387.0787      1994.5222      7296.885       13386.484      20683.369      141052.02      41.413003      41.413003      82.244312          16040 
   3995000   3512.0128      593158.96      7549.9018      590768.39      596133.07      592575.42     -350.93953     -676.06714      5212.0814      7281.1171      13302.779      20583.897      141316.33      41.438853      41.438853      82.295651          16040 
   3996000   3559.6501      601408.88      7557.5598      604488.54      597741.71      601996.4      -480.62424      4456.287       7353.6185      7379.879       13310.668      20690.547      141029.55      41.410803      41.410803      82.239945          16040 
   3997000   3568.2239      599584.63      7565.1958      603039.62      601880.44      593833.84     -2505.281      -2260.5999     -7426.3511      7397.6542      13326.22       20723.874      140937.63      41.401804      41.401804      82.222073          16040 
   3998000   3558.932       605204.2       7572.8394      603941.1       606962.57      604708.94      3054.0966      5612.855      -2520.1844      7378.3901      13427.405      20805.795      140717.82      41.38027       41.38027       82.179306          16040 
   3999000   3527.8552      595453.5       7580.4774      596412.15      593278.9       596669.45     -4636.3767     -3683.41        621.12361      7313.9617      13311.374      20625.336      141201.24      41.427601      41.427601      82.273304          16040 
   4000000   3536.1115      599173.7       7588.1714      601347.89      597482.07      598691.14     -2009.7682     -671.22974     -5691.1417      7331.0786      13344.792      20675.87       141066.58      41.414427      41.414427      82.247141          16040 
Loop time of 7588.17 on 8 procs for 1000000 steps with 16040 atoms

Performance: 5.693 ns/day, 4.216 hours/ns, 131.784 timesteps/s
60.2% CPU use with 1 MPI tasks x 8 OpenMP threads

MPI task timing breakdown:
Section |  min time  |  avg time  |  max time  |%varavg| %total
---------------------------------------------------------------
Pair    | 7304       | 7304       | 7304       |   0.0 | 96.25
Neigh   | 11.641     | 11.641     | 11.641     |   0.0 |  0.15
Comm    | 40.455     | 40.455     | 40.455     |   0.0 |  0.53
Output  | 1.4035     | 1.4035     | 1.4035     |   0.0 |  0.02
Modify  | 204.8      | 204.8      | 204.8      |   0.0 |  2.70
Other   |            | 25.91      |            |       |  0.34

Nlocal:          16040 ave       16040 max       16040 min
Histogram: 1 0 0 0 0 0 0 0 0 0
Nghost:          14538 ave       14538 max       14538 min
Histogram: 1 0 0 0 0 0 0 0 0 0
Neighs:              0 ave           0 max           0 min
Histogram: 1 0 0 0 0 0 0 0 0 0
FullNghs:  1.65281e+06 ave 1.65281e+06 max 1.65281e+06 min
Histogram: 1 0 0 0 0 0 0 0 0 0

Total # of neighbors = 1652806
Ave neighs/atom = 103.04277
Neighbor list builds = 30797
Dangerous builds = 0
Total wall time: 8:19:30
