
atom_style atomic
units metal
boundary p p p
#atom_modify sort 0 0.0
newton on

read_data data.lammps
Reading data file ...
  orthogonal box = (0 0 0) to (43.790145 43.790145 87.58029)
  1 by 1 by 1 MPI processor grid
  reading atoms ...
  16040 atoms
  read_data CPU = 0.057 seconds
# replicate 10 10 20

### interactions

pair_style flare
pair_coeff * * lmp.flare
Reading potential file lmp.flare with DATE: Thu

# compute unc all flare/std/atom L_inv_lmp.flare sparse_desc_lmp.flare
# compute MaxUnc all reduce max c_unc

mass 1 12.011000
mass 2 28.085000

thermo_style custom step temp press cpu pxx pyy pzz pxy pxz pyz ke pe etotal vol lx ly lz atoms    #c_MaxUnc
thermo 1000
timestep 0.0005
restart 100000 restart_*.dat

#################### Equilibrate at P and T_es ##############################
velocity all create $T 41928459 rot yes dist gaussian
velocity all create 2800 41928459 rot yes dist gaussian
fix mom all momentum 1000 linear 1 1 1 angular

fix 1 all npt temp $T $T $(100.0*dt) iso $P $P $(1000.0*dt)
fix 1 all npt temp 2800 $T $(100.0*dt) iso $P $P $(1000.0*dt)
fix 1 all npt temp 2800 2800 $(100.0*dt) iso $P $P $(1000.0*dt)
fix 1 all npt temp 2800 2800 0.050000000000000002776 iso $P $P $(1000.0*dt)
fix 1 all npt temp 2800 2800 0.050000000000000002776 iso 300000 $P $(1000.0*dt)
fix 1 all npt temp 2800 2800 0.050000000000000002776 iso 300000 300000 $(1000.0*dt)
fix 1 all npt temp 2800 2800 0.050000000000000002776 iso 300000 300000 0.5
dump 1 all custom 1000 1equil.bin id type x y z vx vy vz
run   10000 # report performance
Neighbor list info ...
  update every 1 steps, delay 10 steps, check yes
  max neighbors/atom: 2000, page size: 100000
  master list distance cutoff = 6
  ghost atom cutoff = 6
  binsize = 6, bins = 8 8 15
  1 neighbor lists, perpetual/occasional/extra = 1 0 0
  (1) pair flare/kk, perpetual
      attributes: full, newton on, kokkos_device
      pair build: full/bin/kk/device
      stencil: full/bin/3d
      bin: kk/device
Per MPI rank memory allocation (min/avg/max) = 16.04 | 16.04 | 16.04 Mbytes
   Step          Temp          Press           CPU            Pxx            Pyy            Pzz            Pxy            Pxz            Pyz           KinEng         PotEng         TotEng         Volume           Lx             Ly             Lz          Atoms   
         0   2800           71353.551      0              72052.679      70864.57       71143.404      1213.1426     -256.8206      -717.39017      5804.9697     -2985.8921      2819.0777      167941.93      43.790145      43.790145      87.58029           16040 
      1000   2829.3983      299781.06      6.5314758      297374.11      300382.41      301586.65     -566.74561     -257.58721      665.35342      5865.9184      3864.7402      9730.6587      155637.77      42.693491      42.693491      85.386982          16040 
      2000   2797.0848      299943.72      13.034785      299751.97      300881.59      299197.61     -571.77792      26.442637     -1022.553       5798.9258      3522.7586      9321.6844      155411.27      42.67277       42.67277       85.345541          16040 
      3000   2800.4071      299896.84      19.534462      300139.88      299505.23      300045.42     -1061.6073     -731.91036     -302.9542       5805.8137      3667.5035      9473.3172      155533.87      42.683988      42.683988      85.367977          16040 
      4000   2797.9475      300181.67      26.038649      300245.45      299694.5       300605.06     -69.226693      1932.8389     -638.80576      5800.7144      3559.1935      9359.9079      155440.82      42.675475      42.675475      85.35095           16040 
      5000   2829.8531      299909.44      32.540736      298709         300437.61      300581.7      -699.72786      1226.477       1883.4777      5866.8613      3584.7027      9451.5639      155421.21      42.67368       42.67368       85.34736           16040 
      6000   2778.2016      299827.81      39.04743       301304.96      299089.67      299088.79      2916.5061      431.57535      1334.0784      5759.7772      3580.6674      9340.4445      155497.43      42.680655      42.680655      85.36131           16040 
      7000   2819.3659      299512.06      45.557606      300113.22      298308.58      300114.39     -1953.512      -708.37846     -307.57732      5845.1191      3568.6676      9413.7867      155507.64      42.681589      42.681589      85.363177          16040 
      8000   2811.3765      299908.69      52.05708       300333.43      298832.64      300560        -2563.3986      1652.7343     -666.436        5828.5555      3566.666       9395.2215      155331.89      42.665503      42.665503      85.331007          16040 
      9000   2816.7765      300981.23      58.560803      301839.48      300718.8       300385.41     -3002.1105      2397.0473     -1163.9238      5839.7508      3582.689       9422.4398      155311.59      42.663645      42.663645      85.32729           16040 
     10000   2806.7078      294511.82      65.056195      295600.71      294233.06      293701.69      47.597902     -2178.5667      1136.7782      5818.8763      3480.7052      9299.5815      155609.85      42.690938      42.690938      85.381875          16040 
Loop time of 65.0562 on 8 procs for 10000 steps with 16040 atoms

Performance: 6.640 ns/day, 3.614 hours/ns, 153.713 timesteps/s
62.2% CPU use with 1 MPI tasks x 8 OpenMP threads

MPI task timing breakdown:
Section |  min time  |  avg time  |  max time  |%varavg| %total
---------------------------------------------------------------
Pair    | 61.84      | 61.84      | 61.84      |   0.0 | 95.06
Neigh   | 0.075952   | 0.075952   | 0.075952   |   0.0 |  0.12
Comm    | 0.40164    | 0.40164    | 0.40164    |   0.0 |  0.62
Output  | 0.01299    | 0.01299    | 0.01299    |   0.0 |  0.02
Modify  | 2.4341     | 2.4341     | 2.4341     |   0.0 |  3.74
Other   |            | 0.2913     |            |       |  0.45

Nlocal:          16040 ave       16040 max       16040 min
Histogram: 1 0 0 0 0 0 0 0 0 0
Nghost:          13690 ave       13690 max       13690 min
Histogram: 1 0 0 0 0 0 0 0 0 0
Neighs:              0 ave           0 max           0 min
Histogram: 1 0 0 0 0 0 0 0 0 0
FullNghs:  1.48009e+06 ave 1.48009e+06 max 1.48009e+06 min
Histogram: 1 0 0 0 0 0 0 0 0 0

Total # of neighbors = 1480086
Ave neighs/atom = 92.274688
Neighbor list builds = 237
Dangerous builds = 0
run  990000
Per MPI rank memory allocation (min/avg/max) = 16.11 | 16.11 | 16.11 Mbytes
   Step          Temp          Press           CPU            Pxx            Pyy            Pzz            Pxy            Pxz            Pyz           KinEng         PotEng         TotEng         Volume           Lx             Ly             Lz          Atoms   
     10000   2806.7078      294511.82      0              295600.71      294233.06      293701.69      47.597902     -2178.5667      1136.7782      5818.8763      3480.7052      9299.5815      155609.85      42.690938      42.690938      85.381875          16040 
     11000   2803.9773      305337.87      6.4867832      305678.15      305547.13      304788.34     -1627.8592     -38.805945     -1429.3996      5813.2155      3629.576       9442.7915      155040.92      42.638846      42.638846      85.277693          16040 
     12000   2808.0061      302203         12.974113      302037.32      300620.73      303950.94      28.677537     -150.58225      1046.2113      5821.5681      3587.2607      9408.8288      155338.22      42.666083      42.666083      85.332166          16040 
     13000   2825.864       297010.97      19.461703      297177.32      296119.58      297736         591.44155      812.25018     -1972.6292      5858.591       3512.1514      9370.7424      155481.76      42.679221      42.679221      85.358441          16040 
     14000   2776.2804      301969.41      25.946161      302134.65      301502.42      302271.15      601.41545     -503.07446     -268.37649      5755.7941      3501.933       9257.7271      155175.94      42.65122       42.65122       85.302441          16040 
     15000   2796.0258      301142.98      32.430364      300479.13      301347.81      301602.02      1612.0642     -1362.955      -377.89519      5796.7304      3579.603       9376.3335      155266.03      42.659472      42.659472      85.318945          16040 
     16000   2796.4696      298588.01      38.921466      297054.2       298582.78      300127.04      1422.6307     -116.00557     -1629.3431      5797.6504      3447.0567      9244.7071      155361.81      42.668243      42.668243      85.336486          16040 
     17000   2825.058       298556.89      45.388399      298698.23      297468.92      299503.53      1261.8576      1515.806       2053.0028      5856.92        3551.3142      9408.2342      155457.5       42.677001      42.677001      85.354002          16040 
     18000   2780.635       300918.13      51.853292      301243.73      300479.88      301030.78      1682.5538      802.58641     -798.27782      5764.8222      3581.1368      9345.959       155252.17      42.658204      42.658204      85.316408          16040 
     19000   2763.29        303818.56      58.321962      304582.15      304019.71      302853.83     -138.40325     -2836.5004      888.82259      5728.8623      3584.9088      9313.7711      155104.66      42.644689      42.644689      85.289377          16040 
     20000   2786.7791      294558.5       64.785974      294201.74      294074.64      295399.13     -807.74161      1538.8176      233.58268      5777.5602      3511.8226      9289.3827      155642.54      42.693927      42.693927      85.387855          16040 
     21000   2830.2423      301138.97      71.25225       301072.51      300608.27      301736.12      1024.7861     -618.07807      631.97011      5867.6681      3496.7994      9364.4675      155301.15      42.662689      42.662689      85.325379          16040 
     22000   2781.2225      302638.78      77.720953      301736.85      303791         302388.51     -55.56743       1537.909       2091.7907      5766.0402      3506.7473      9272.7875      155205.71      42.653948      42.653948      85.307896          16040 
     23000   2813.6126      298456.16      84.189146      298096.07      297412.3       299860.09     -1534.661       301.40764     -1293.4208      5833.1914      3539.319       9372.5104      155473.51      42.678466      42.678466      85.356932          16040 
     24000   2826.4961      300259.57      90.659134      299596.48      300249.47      300932.76     -1952.7176     -1064.2877      3112.3814      5859.9016      3545.0694      9404.971       155409.7       42.672626      42.672626      85.345253          16040 
     25000   2750.9385      300895.18      97.126999      300415.27      301015.89      301254.39      6.3282816     -1619.1809      367.27211      5703.2552      3584.6835      9287.9387      155193.29      42.65281       42.65281       85.30562           16040 
     26000   2810.2197      300059.23      103.5932       301125.93      299370.7       299681.05      161.4825       2193.9034      211.91124      5826.1573      3533.1029      9359.2602      155323.45      42.664731      42.664731      85.329463          16040 
     27000   2768.0516      295499.46      110.06195      295828.9       295926.25      294743.25      3309.6688     -701.378        216.33552      5738.7342      3509.5679      9248.3021      155613.81      42.6913        42.6913        85.3826            16040 
     28000   2805.0876      305349.72      120.04148      306236.94      305061.47      304750.76     -969.1518      -274.40181     -558.41614      5815.5173      3503.897       9319.4143      155017.61      42.636709      42.636709      85.273418          16040 
     29000   2801.5355      298660.77      126.51939      299876.32      297540.58      298565.4       2396.679      -2370.4456     -971.83742      5808.1532      3535.5515      9343.7047      155401.05      42.671835      42.671835      85.343669          16040 
     30000   2778.8735      300110.4       132.98886      299633.23      299885.73      300812.23      2431.6406     -3305.4496     -672.44464      5761.1701      3505.7001      9266.8702      155312.67      42.663744      42.663744      85.327488          16040 
     31000   2810.6147      300910.96      139.46195      299923.57      301980.21      300829.09     -1113.4595     -226.09485      2564.6415      5826.9762      3506.0881      9333.0642      155233.27      42.656472      42.656472      85.312945          16040 
     32000   2808.5832      297907.08      148.24686      297735.49      298050.11      297935.63      474.88108      1156.4407     -3699.9367      5822.7644      3501.7803      9324.5447      155450.91      42.676398      42.676398      85.352797          16040 
     33000   2783.8551      295932.59      154.73167      295399.08      295844.04      296554.65     -1692.1757     -2705.0542     -591.33237      5771.4981      3544.57        9316.0681      155530.98      42.683724      42.683724      85.367448          16040 
     34000   2790.9933      302712.31      161.19914      302997         303420.97      301718.95     -629.99656      3417.9444     -1068.9751      5786.297       3551.0413      9337.3382      155097.02      42.643989      42.643989      85.287977          16040 
     35000   2759.4381      300343.16      167.6682       299427.72      301757.51      299844.25      471.14341      3175.9748     -977.03366      5720.8766      3489.0549      9209.9314      155221.93      42.655433      42.655433      85.310867          16040 
     36000   2806.8218      297166.17      174.12748      295589.58      297425.88      298483.03      100.11138      555.95733      353.37874      5819.1127      3470.9973      9290.1101      155425.26      42.674051      42.674051      85.348102          16040 
     37000   2785.2125      303896.59      180.59197      302623.49      305207.53      303858.77     -3165.0091      1689.1808     -2092.2857      5774.3122      3545.7297      9320.0419      155030.54      42.637895      42.637895      85.27579           16040 
     38000   2764.9922      297153.7       187.0524       297788.63      296932.43      296740.04      877.94367      582.5871      -407.09245      5732.3913      3477.1616      9209.5529      155364.67      42.668505      42.668505      85.337009          16040 
     39000   2773.8001      299820.55      197.92592      300020.78      300287.36      299153.52     -274.53         94.478388      399.28211      5750.652       3465.2656      9215.9176      155259.1       42.658838      42.658838      85.317676          16040 
     40000   2815.5887      301122.34      204.40575      299700.1       301531.57      302135.35      670.88582     -671.18721     -2039.0771      5837.2882      3492.772       9330.0602      155176.22      42.651246      42.651246      85.302492          16040 
     41000   2799.0085      298198.33      210.86625      298504.82      297926.97      298163.21      2347.824       3460.0428      2719.3872      5802.9141      3564.661       9367.5752      155407.37      42.672414      42.672414      85.344827          16040 
     42000   2786.6608      299523.32      217.32898      299697.17      299020.12      299852.68      644.2947      -308.91219     -810.05582      5777.3147      3496.5967      9273.9114      155232.32      42.656386      42.656386      85.312771          16040 
     43000   2806.5035      306206.82      223.78774      307061.02      305743.79      305815.65      108.31131      2386.3496     -1898.8375      5818.4527      3522.4434      9340.8961      154904.92      42.626376      42.626376      85.252751          16040 
     44000   2804.7588      296466.07      230.51317      296764.47      296929.21      295704.54      1061.5824      736.07011      972.06405      5814.8356      3515.1157      9329.9513      155490.24      42.679997      42.679997      85.359994          16040 
     45000   2765.372       300000.58      236.98604      298456.21      300187.02      301358.52     -462.59048     -3526.4503      437.33847      5733.1787      3517.9872      9251.1659      155268.47      42.659697      42.659697      85.319393          16040 
     46000   2797.2314      302731.33      243.44884      301901.35      302247.66      304044.99      1317.5493     -573.49749     -1956.0777      5799.2299      3560.2415      9359.4714      155115.95      42.645723      42.645723      85.291446          16040 
     47000   2807.6839      299123.8       249.90932      297477.38      299055.43      300838.57      1151.4347      1254.2209     -382.58827      5820.9         3443.4001      9264.3001      155241.01      42.657181      42.657181      85.314362          16040 
     48000   2828.8254      298630.21      256.36923      299903.1       297756.99      298230.53     -1015.3578      2207.4184     -2674.2232      5864.7306      3472.6704      9337.401       155343.57      42.666573      42.666573      85.333145          16040 
     49000   2797.7378      299369.07      262.82992      299556.14      298760.05      299791.02      1074.6973     -1320.3451      1272.7957      5800.2797      3519.1182      9319.3979      155321.94      42.664593      42.664593      85.329186          16040 
     50000   2801.22        306889.18      269.29191      305938.13      308142.23      306587.17     -2368.7992      2884.1449     -959.86753      5807.4991      3546.7976      9354.2967      154855.73      42.621863      42.621863      85.243727          16040 
     51000   2793.1646      297479.15      275.75046      297554.31      296627.49      298255.64      32.88686       534.96256     -215.03053      5790.7985      3453.2711      9244.0697      155397.34      42.671495      42.671495      85.34299           16040 
     52000   2782.366       299841.49      282.21052      299452.2       300623.71      299448.55     -1547.9348     -683.55561     -175.92334      5768.4108      3496.3799      9264.7907      155231.9       42.656347      42.656347      85.312693          16040 
     53000   2787.3167      302049.9       288.66868      303217.34      302345.85      300586.5      -985.72637     -2820.6638     -4936.8133      5778.6746      3525.7955      9304.4701      155091.09      42.643445      42.643445      85.28689           16040 
     54000   2787.4433      298469.51      295.12732      298218.44      298169.07      299021.02      1546.083       1084.1935     -580.70107      5778.9372      3475.6171      9254.5542      155306.85      42.663211      42.663211      85.326421          16040 
     55000   2795.0703      298984.67      301.58613      297954.1       299920.71      299079.2       489.27786      86.79213       470.80645      5794.7494      3451.397       9246.1464      155295.51      42.662173      42.662173      85.324346          16040 
     56000   2801.8308      301655.05      308.04375      301748.01      301796.23      301420.92     -2275.109       478.43666     -812.73914      5808.7653      3521.8067      9330.572       155129.6       42.646974      42.646974      85.293949          16040 
     57000   2784.0616      298363.8       314.49933      299888.05      298357.59      296845.75      1202.4095      3551.9706      397.45021      5771.9262      3454.8562      9226.7823      155331.64      42.66548       42.66548       85.330961          16040 
     58000   2798.9198      300307.94      320.95639      301457.79      299276.97      300189.05      1419.0347     -3363.6748      8.3974302      5802.7301      3500.2487      9302.9789      155207.56      42.654117      42.654117      85.308234          16040 
     59000   2815.5672      301304.41      327.41254      300871.47      301400.79      301640.98     -560.00953      318.94948     -687.16973      5837.2437      3481.8113      9319.055       155178.74      42.651477      42.651477      85.302954          16040 
     60000   2810.8975      295890.44      333.87327      295718.85      295289.63      296662.83      674.38793      975.76142     -1647.657       5827.5625      3474.2276      9301.7901      155537.5       42.684321      42.684321      85.368642          16040 
     61000   2808.236       299906.82      340.33457      300233.43      299525.33      299961.7      -1760.9745      1203.7469     -3630.8488      5822.0446      3462.0619      9284.1064      155192.69      42.652755      42.652755      85.305511          16040 
     62000   2792.5493      302761.62      346.79878      302660.5       304317.37      301306.97     -865.08468      1395.9793      427.30821      5789.5229      3520.73        9310.2528      155061.52      42.640735      42.640735      85.281469          16040 
     63000   2787.2385      297768.16      353.26289      297786.79      297929.68      297588.01      495.50368      778.50739     -303.06872      5778.5126      3421.8821      9200.3946      155259.91      42.658912      42.658912      85.317825          16040 
     64000   2811.713       296087.61      359.72663      296763.6       295111.96      296387.29      63.076297      646.42933      854.81659      5829.253       3449.6317      9278.8847      155418.46      42.673429      42.673429      85.346857          16040 
     65000   2792.1592      305137         366.19082      306450.09      304472.83      304488.08     -1411.2497      54.122736     -2955.26        5788.7141      3474.0403      9262.7544      154920.44      42.627799      42.627799      85.255599          16040 
     66000   2796.8495      300962         372.65546      301553.2       301742.44      299590.36      459.23196      788.99077      689.25908      5798.4382      3496.7641      9295.2022      155251.25      42.658119      42.658119      85.316238          16040 
     67000   2783.7338      300849.35      379.12044      302132.36      300433.14      299982.56      1211.5967     -1439.788       1466.6783      5771.2466      3464.0658      9235.3124      155177.59      42.651372      42.651372      85.302743          16040 
     68000   2798.3083      299127.46      385.58569      298145.04      298871.6       300365.73     -680.89682      1285.1039     -907.07549      5801.4624      3471.7521      9273.2145      155307.8       42.663298      42.663298      85.326596          16040 
     69000   2817.7899      300121.68      392.0522       301012.65      299096.54      300255.86      1905.7933     -1424.5959      2107.4479      5841.8519      3466.9464      9308.7983      155202.52      42.653655      42.653655      85.30731           16040 
     70000   2815.7991      298373.07      398.51794      300018.18      297434.85      297666.17     -923.68861     -742.2647       1155.5421      5837.7244      3349.2117      9186.9362      155330.25      42.665354      42.665354      85.330707          16040 
     71000   2830.6457      295544.13      404.98266      293765.77      296014.51      296852.1      -742.65497      711.93075     -3239.3985      5868.5045      3466.2462      9334.7507      155526.82      42.683344      42.683344      85.366688          16040 
     72000   2823.9553      306323.38      411.4497       307114.36      304854.33      307001.44     -756.85084     -2567.7002     -3551.1817      5854.6338      3454.8827      9309.5166      154886.52      42.624687      42.624687      85.249374          16040 
     73000   2832.9739      299586.69      417.91334      299400.45      300637.66      298721.97      1456.5186      1276.3726     -1231.2499      5873.3312      3474.3537      9347.685       155280.9       42.660835      42.660835      85.321669          16040 
     74000   2800.7512      298323.41      424.37944      297218.49      298775.8       298975.95      3014.9317     -1174.1684      120.4864       5806.5271      3463.5381      9270.0652      155309.84      42.663485      42.663485      85.32697           16040 
     75000   2783.401       297753.67      430.84447      298831.27      297187.05      297242.68     -2813.6456     -1439.3192     -1446.3959      5770.5566      3456.7412      9227.2978      155279.14      42.660673      42.660673      85.321347          16040 
     76000   2814.7014      301675.95      437.3062       300200.07      301237.93      303589.84     -2014.2827      110.94139     -2662.3616      5835.4487      3526.2778      9361.7265      155142.71      42.648176      42.648176      85.296351          16040 
     77000   2797.3443      301879.16      443.76643      301332.22      301623.63      302681.64      1646.168       1784.2858     -989.7058       5799.4639      3469.9349      9269.3988      155082.47      42.642655      42.642655      85.28531           16040 
     78000   2816.0928      294222.96      450.23053      294226.48      293524.18      294918.23     -1612.6659     -216.06995     -1405.4343      5838.3334      3424.6191      9262.9525      155587.6       42.688904      42.688904      85.377807          16040 
     79000   2809.6017      299187.57      456.69834      298472.41      298983.05      300107.26     -1733.8325     -668.49569     -151.93072      5824.8759      3431.4484      9256.3243      155258.81      42.658812      42.658812      85.317623          16040 
     80000   2803.0027      301805.12      463.16409      301684.52      302195.45      301535.39      2411.8136      49.069026     -2228.246       5811.1949      3496.3692      9307.5641      155148.6       42.648715      42.648715      85.29743           16040 
     81000   2758.1223      299044.81      469.628        298838.83      299575.2       298720.42      3254.9067     -842.1455       279.63729      5718.1486      3465.9882      9184.1368      155242.5       42.657318      42.657318      85.314635          16040 
     82000   2835.619       299460.11      476.29809      299573.04      299614.03      299193.26     -1457.5517     -840.38927      2376.4862      5878.8152      3389.0573      9267.8724      155230.21      42.656192      42.656192      85.312385          16040 
     83000   2805.3237      300589.36      482.77249      300511.02      300883.74      300373.33     -1187.5859     -2521.8641      299.73886      5816.0068      3481.7499      9297.7567      155177.84      42.651394      42.651394      85.302788          16040 
     84000   2786.7196      294690         489.23834      293670.74      297371.12      293028.14     -1613.0035     -1719.474       1786.5344      5777.4367      3266.1967      9043.6335      155441.85      42.675569      42.675569      85.351139          16040 
     85000   2800.3972      300831.68      495.70623      301836.79      300250.86      300407.39     -116.48371     -46.781988      1023.7015      5805.7933      3481.9993      9287.7926      155134.25      42.647401      42.647401      85.294801          16040 
     86000   2805.7863      302820.38      504.41928      303280.24      302014.36      303166.54     -2012.3959     -1572.9898      1579.9037      5816.9658      3375.7599      9192.7258      155016.92      42.636646      42.636646      85.273292          16040 
     87000   2791.9788      295865.15      510.90018      294083.7       296786.7       296725.06     -48.832991     -1352.4574      888.44848      5788.3401      3478.5293      9266.8695      155382.66      42.670152      42.670152      85.340304          16040 
     88000   2769.3866      298693.05      517.36354      299228.9       298864.13      297986.13      365.20166      1704.3327      493.91344      5741.5019      3512.7696      9254.2715      155263.39      42.659231      42.659231      85.318461          16040 
     89000   2827.8046      302871.72      523.82875      301407.43      304045.03      303162.69     -3063.8784     -179.78862     -1638.567       5862.6143      3399.3542      9261.9685      155075.65      42.64203       42.64203       85.284061          16040 
     90000   2799.1091      297888.05      530.2938       299661.83      295860.97      298141.35     -37.809939      1775.3562      327.50489      5803.1227      3470.0137      9273.1364      155424.36      42.673968      42.673968      85.347936          16040 
     91000   2792.3877      296976.82      536.75708      295967.72      296674.53      298288.2       516.16489     -1365.7738     -3736.7136      5789.1878      3429.9026      9219.0904      155378.99      42.669815      42.669815      85.339631          16040 
     92000   2790.4409      305568.93      543.22086      305531.6       306567.02      304608.17      118.03022     -585.83341      510.86112      5785.1518      3432.4173      9217.5691      154872.59      42.62341       42.62341       85.246819          16040 
     93000   2800.6656      299744.25      549.68462      300162.41      298404.09      300666.24      2789.8142      1319.0265      2353.025       5806.3495      3374.2906      9180.6401      155225.54      42.655765      42.655765      85.311529          16040 
     94000   2812.9147      298159.37      556.14684      299023.23      297883.63      297571.24     -133.56994      2951.3201      1227.1568      5831.7444      3417.6613      9249.4057      155379.97      42.669905      42.669905      85.339811          16040 
     95000   2809.5735      302020         562.6114       302191.03      302105.55      301763.42     -1170.5755     -42.905331     -1159.4931      5824.8174      3376.2643      9201.0817      155040.14      42.638775      42.638775      85.277549          16040 
     96000   2792.3392      300310.84      569.78215      300827.5       301151.02      298954         2139.4455     -713.37744     -1905.5444      5789.0874      3497.2951      9286.3825      155293.07      42.661949      42.661949      85.323898          16040 
     97000   2755.4578      296529.3       576.24537      298530.7       294903.42      296153.8      -2202.5209     -579.32363     -1405.6923      5712.6246      3417.7029      9130.3275      155433.18      42.674776      42.674776      85.349552          16040 
     98000   2810.7284      305535.05      582.71101      305421.07      304223.64      306960.43      1366.0834     -1573.874      -533.02225      5827.2119      3484.4         9311.6119      154883.09      42.624373      42.624373      85.248746          16040 
     99000   2805.2269      302472.55      589.17723      301576.43      301555.85      304285.37      555.81997      1912.3573      140.03108      5815.8062      3428.7328      9244.539       155093.28      42.643646      42.643646      85.287291          16040 
    100000   2741.0992      297871.15      595.65037      298958.09      297481.89      297173.48     -1787.0165     -2036.8861      1077.2797      5682.8564      3441.1109      9123.9673      155266.64      42.659529      42.659529      85.319058          16040 
    101000   2826.7719      298534.87      602.11595      299730.93      297735.91      298137.76      1425.9975      837.72683      1424.6754      5860.4733      3389.1513      9249.6246      155275.4       42.660331      42.660331      85.320663          16040 
    102000   2823.9415      304578.38      608.57939      305165.44      304138.15      304431.53     -839.17514     -1649.0325     -1315.1773      5854.6052      3486.7272      9341.3324      154970.95      42.632431      42.632431      85.264862          16040 
    103000   2786.4646      294008.45      615.04536      295291.19      292520.16      294213.99     -403.2279       1971.0075     -897.10291      5776.9082      3348.813       9125.7212      155516.72      42.682419      42.682419      85.364839          16040 
    104000   2816.9001      300425.12      621.50906      300304.76      300866.44      300104.16     -2762.4299     -2942.5633      1078.9134      5840.0071      3411.2091      9251.2162      155250.97      42.658093      42.658093      85.316186          16040 
    105000   2794.1223      304013.26      627.97235      305269.43      302530.39      304239.95      1239.8025      1570.2033     -1776.0165      5792.7839      3390.953       9183.7369      155010.86      42.636091      42.636091      85.272181          16040 
    106000   2825.7409      297179.08      634.43831      296665.82      297948.67      296922.74      384.04376     -2826.1928      1950.7753      5858.3359      3380.2051      9238.541       155407.76      42.672449      42.672449      85.344897          16040 
    107000   2789.2225      299281.36      640.9041       299497.66      298478.83      299867.58      1834.9735      5027.5397      237.47         5782.6258      3361.4269      9144.0527      155226.36      42.65584       42.65584       85.311679          16040 
    108000   2805.8788      306149.15      647.36912      305648.94      306740.33      306058.18     -568.94963     -683.89477     -648.69071      5817.1577      3510.9999      9328.1576      154880.87      42.624169      42.624169      85.248338          16040 
    109000   2812.0305      298500.8       653.83224      297945.7       298029.23      299527.45      1565.7905      394.77035      1417.6431      5829.9113      3406.6381      9236.5494      155319.66      42.664384      42.664384      85.328767          16040 
    110000   2809.501       298991.86      660.29603      299913.59      297980.11      299081.88      437.2102      -1009.9805      1042.984       5824.6672      3387.059       9211.7262      155254.28      42.658397      42.658397      85.316794          16040 
    111000   2786.4434      301574.93      666.75903      301417.51      301030.88      302276.39      1235.7067      909.57309      232.15774      5776.8642      3444.7669      9221.631       155079.57      42.642389      42.642389      85.284778          16040 
    112000   2817.3625      296184.78      673.2209       296844.06      295331.45      296378.84      306.55913      442.31844      1034.997       5840.9658      3323.8117      9164.7775      155358.81      42.667969      42.667969      85.335937          16040 
    113000   2815.0782      302246.22      679.68471      302283.39      303149.55      301305.74      317.95194      421.96985      1876.8661      5836.2298      3553.4899      9389.7197      155113.89      42.645535      42.645535      85.29107           16040 
    114000   2784.4995      305544.76      686.15309      305692.03      306198.95      304743.3       1208.3425      883.7295       1110.7257      5772.834       3457.581       9230.415       154932.26      42.628883      42.628883      85.257766          16040 
    115000   2769.4164      295845.16      692.62334      297432.93      295539.42      294563.13      112.69669      3178.8151      22.562047      5741.5637      3455.0429      9196.6066      155460.83      42.677305      42.677305      85.354611          16040 
    116000   2807.2062      301913.28      699.08894      302012.79      301864.12      301862.91      2345.4131     -339.61726      1468.306       5819.9097      3391.0214      9210.931       155134.81      42.647452      42.647452      85.294904          16040 
    117000   2767.9637      301094.08      705.55687      300667.79      302068.9       300545.55      159.25321      285.67101     -2119.491       5738.552       3371.073       9109.6251      155129.94      42.647005      42.647005      85.29401           16040 
    118000   2793.1774      298635.61      712.02501      297880.63      298599.36      299426.83      663.92515      1.2821132     -1071.1245      5790.8251      3435.9118      9226.7369      155257.5       42.658691      42.658691      85.317383          16040 
    119000   2782.6283      297033.86      718.48841      295766.93      296902.31      298432.34     -1952.3529     -3087.9502     -1200.6958      5768.9546      3447.0181      9215.9727      155357.44      42.667843      42.667843      85.335686          16040 
    120000   2795.5553      302909.13      724.95325      304166.98      302205.3       302355.12     -3760.3293      851.29369     -2472.2367      5795.755       3389.1061      9184.8611      155042.62      42.639003      42.639003      85.278005          16040 
    121000   2832.0188      300948.24      731.41612      298800.15      303212.94      300831.64      1855.0484      1943.6276     -4184.7645      5871.3513      3404.1525      9275.5038      155137.83      42.647729      42.647729      85.295457          16040 
    122000   2776.2875      295277.14      737.88249      294474.45      296188.84      295168.13      3399.1851      3559.783       201.9678       5755.8089      3368.3539      9124.1629      155428         42.674301      42.674301      85.348603          16040 
    123000   2821.0069      301107.08      744.34927      301937.69      300980.18      300403.37      1632.667       2868.4154     -1894.3882      5848.5212      3429.8397      9278.3609      155138.41      42.647781      42.647781      85.295563          16040 
    124000   2791.6335      300299.65      750.81507      300210.3       299736.47      300952.19     -182.72207      546.79721      2154.5586      5787.6243      3436.3509      9223.9752      155126.03      42.646647      42.646647      85.293294          16040 
    125000   2786.0164      298097.12      757.2782       299774.9       298184.48      296331.98     -523.24749      1187.4844      625.09894      5775.9788      3513.2614      9289.2402      155331.33      42.665452      42.665452      85.330904          16040 
    126000   2788.7117      300620.74      763.74179      301062.74      300058.31      300741.18     -45.520307     -2054.2009     -188.5263       5781.5669      3434.1471      9215.7139      155131.75      42.647172      42.647172      85.294344          16040 
    127000   2802.8082      301595.52      770.20563      302554.47      301391.8       300840.28     -3128.1682      222.17287     -610.30287      5810.7917      3511.9951      9322.7868      155160.98      42.64985       42.64985       85.2997            16040 
    128000   2783.3212      293002.86      776.67024      292026.8       294023.77      292957.99      604.56404     -1344.5404     -2724.7         5770.3912      3326.7965      9097.1878      155516.11      42.682364      42.682364      85.364728          16040 
    129000   2826.0836      303011.88      783.1333       302189.51      303906.11      302940.04     -727.78902     -2150.3477     -573.36566      5859.0463      3411.16        9270.2062      155012.13      42.636207      42.636207      85.272415          16040 
    130000   2804.9939      301454.45      790.38413      301625.35      300542.96      302195.03     -2502.9001     -715.85766     -817.26895      5815.323       3438.5636      9253.8866      155140.31      42.647956      42.647956      85.295912          16040 
    131000   2784.0301      296398.4       796.85302      296737.03      296079.58      296378.6      -2807.1657      785.77403      577.63921      5771.8608      3431.2742      9203.135       155358.06      42.667899      42.667899      85.335799          16040 
    132000   2804.2297      301294.4       803.31708      301095.81      300758.4       302028.99      1213.8143      1970.6758      99.992671      5813.7388      3431.749       9245.4878      155055.9       42.64022       42.64022       85.280439          16040 
    133000   2826.6468      299852.86      809.78193      299982.34      299982.98      299593.28     -2234.0491     -3.4839532     -2052.6208      5860.2139      3389.7432      9249.9571      155169.24      42.650607      42.650607      85.301214          16040 
    134000   2807.9769      300297.33      816.24542      301107.4       300867.02      298917.56      1273.5402     -2300.4184      3467.6688      5821.5073      3372.3636      9193.8709      155190.79      42.652581      42.652581      85.305161          16040 
    135000   2815.1145      300857.26      822.71078      300426         301384.66      300761.12     -1528.5401     -335.8157      -864.83539      5836.3052      3448.5796      9284.8848      155106.12      42.644822      42.644822      85.289645          16040 
    136000   2794.4639      299756.58      829.17804      299836.34      299920.07      299513.33      899.6246      -443.84827      4389.6955      5793.4922      3355.8502      9149.3425      155144.25      42.648317      42.648317      85.296634          16040 
    137000   2806.2693      296896.53      835.64297      297697.12      296139.14      296853.32     -1871.2365     -805.69951      1569.248       5817.9673      3430.2943      9248.2617      155371.8       42.669157      42.669157      85.338315          16040 
    138000   2816.8956      302549.48      842.10767      303153.86      302756.13      301738.44      625.39514      2333.2398      1318.6785      5839.9977      3390.9958      9230.9935      154995.48      42.63468       42.63468       85.26936           16040 
    139000   2799.7364      299351.57      848.57171      298772.42      299427.31      299854.98     -829.43396     -1060.7789      2650.3059      5804.4231      3381.1014      9185.5246      155150.98      42.648934      42.648934      85.297867          16040 
    140000   2830.8778      294875.12      855.03653      294187.65      294876.6       295561.1      -1143.8994      733.66609     -436.69116      5868.9857      3394.3041      9263.2897      155500.28      42.680916      42.680916      85.361831          16040 
    141000   2788.4715      306236.24      861.50388      306065.9       305367.65      307275.17      1422.8545     -1776.6795     -1632.4135      5781.0687      3478.4488      9259.5175      154854         42.621704      42.621704      85.243408          16040 
    142000   2812.7199      299698.92      867.97009      298564.69      302491.22      298040.86      2592.0123     -3607.9743      2023.2134      5831.3406      3409.4525      9240.7931      155234.49      42.656584      42.656584      85.313168          16040 
    143000   2784.7867      300114.76      874.43378      300429.11      299081.69      300833.47     -1045.4388      429.23543     -361.46607      5773.4294      3399.8801      9173.3094      155192.16      42.652707      42.652707      85.305413          16040 
    144000   2808.6153      302830.66      881.20978      303293.06      303854.82      301344.1      -68.009861      1356.0482     -382.30432      5822.831       3426.6296      9249.4607      155059.99      42.640595      42.640595      85.281189          16040 
    145000   2826.3668      298063.44      887.67755      298490.49      298753.75      296946.09     -2735.7074     -673.2454      -931.88789      5859.6334      3413.8167      9273.4501      155318.56      42.664283      42.664283      85.328566          16040 
    146000   2790.3105      295385.14      894.14274      296148.61      295388.31      294618.5      -2670.4358      1572.9842      1073.1739      5784.8815      3340.8724      9125.7539      155388.3       42.670667      42.670667      85.341335          16040 
    147000   2789.6005      303476.31      900.60661      303691.14      303613.05      303124.74     -547.74409     -375.67085     -2571.1643      5783.4095      3417.5647      9200.9742      155004.24      42.635483      42.635483      85.270967          16040 
    148000   2811.2128      300091.23      907.07129      299598.48      300758.09      299917.12      100.32127     -688.69295     -741.67667      5828.2161      3396.779       9224.9952      155157.04      42.649489      42.649489      85.298977          16040 
    149000   2821.7641      299932.53      916.05822      300954.67      299869.15      298973.78      827.52971     -599.82413     -2213.0941      5850.0911      3353.7673      9203.8584      155164.49      42.650171      42.650171      85.300342          16040 
    150000   2763.307       297757.84      922.53807      298209.46      297588.72      297475.35     -1413.6778     -1307.6586     -13.156862      5728.8977      3358.6256      9087.5233      155308.15      42.66333       42.66333       85.32666           16040 
    151000   2823.3066      303867.4       929.0052       303145.18      303359.93      305097.09      1680.7504     -1263.441       2124.8054      5853.289       3426.5464      9279.8354      155046.42      42.639351      42.639351      85.278702          16040 
    152000   2778.0833      302983.14      935.47308      304442.71      301016.35      303490.37      553.13929      3269.1383     -849.42521      5759.5319      3406.3228      9165.8547      154988.82      42.63407       42.63407       85.26814           16040 
    153000   2811.4585      296028.81      941.94161      295534.84      296172.2       296379.41     -1635.3092      779.05089      3533.8499      5828.7255      3341.0929      9169.8183      155458.29      42.677074      42.677074      85.354148          16040 
    154000   2773.4083      299799.2       948.4077       299134.18      299227.8       301035.62      801.57693     -1804.8964     -191.18984      5749.8397      3346.1343      9095.974       155134.87      42.647458      42.647458      85.294915          16040 
    155000   2818.8511      302504.27      954.87539      302213.43      302761.55      302537.83      406.50454      1046.3727      807.81983      5844.0519      3392.026       9236.0779      155043.16      42.639052      42.639052      85.278104          16040 
    156000   2786.0622      299830.72      961.34409      299736.54      299186.82      300568.8       1878.6218      786.03414     -1545.0976      5776.0738      3319.8772      9095.951       155199.33      42.653363      42.653363      85.306727          16040 
    157000   2798.0134      297257.05      967.81002      297614.21      297430.4       296726.53     -1858.5483      662.08013      631.24938      5800.851       3400.1065      9200.9575      155333.76      42.665675      42.665675      85.331351          16040 
    158000   2791.8681      307830.2       974.27558      307303.14      308529.76      307657.7      -1127.2355      3679.6641      1740.0333      5788.1107      3546.1427      9334.2533      154780.9       42.614996      42.614996      85.229992          16040 
    159000   2801.0453      297028.71      980.74157      296616.61      297972.83      296496.68     -588.38238      1523.2867      674.04698      5807.1368      3333.0758      9140.2126      155297.59      42.662363      42.662363      85.324726          16040 
    160000   2779.0858      300144.43      987.2057       300624.63      298949.91      300858.74     -23.082885     -3863.8691      2022.3308      5761.6103      3367.1657      9128.776       155152.13      42.649039      42.649039      85.298078          16040 
    161000   2804.1375      305014.12      994.02637      303490.3       305674.76      305877.31     -684.52931      2477.5888     -1686.1936      5813.5477      3442.147       9255.6946      154921.39      42.627886      42.627886      85.255772          16040 
    162000   2814.36        296640.83      1000.4937      296196.38      297048.86      296677.23      3779.7411     -1846.1473     -1333.8466      5834.7408      3384.8806      9219.6214      155332.54      42.665564      42.665564      85.331127          16040 
    163000   2794.1746      300511.4       1006.96        300605.1       300744.48      300184.63     -779.07133      1974.412       728.40163      5792.8924      3354.5782      9147.4706      155148.29      42.648687      42.648687      85.297375          16040 
    164000   2773.4871      302256.39      1013.4209      301848         302960.79      301960.36     -1813.5163     -1094.8617      2285.6743      5750.0032      3440.884       9190.8872      155033.58      42.638174      42.638174      85.276348          16040 
    165000   2821.7304      299865.58      1019.8842      299809.85      300513.58      299273.32      1727.8218     -2343.8843      297.59844      5850.0213      3441.7578      9291.7791      155273.3       42.660139      42.660139      85.320278          16040 
    166000   2834.3434      296116.16      1028.2153      295364.81      295732.51      297251.16     -4737.7242      1067.5213      49.719866      5876.1705      3286.6982      9162.8687      155375.64      42.669509      42.669509      85.339018          16040 
    167000   2823.342       304901.85      1034.6945      304390.29      304620.78      305694.47      1672.5878      877.91806     -2976.3787      5853.3623      3453.0576      9306.42        154962.11      42.631621      42.631621      85.263242          16040 
    168000   2787.4126      299049.24      1041.1623      298489.87      299779.65      298878.19      157.83122     -1078.5774      928.85809      5778.8735      3357.9909      9136.8644      155192.16      42.652707      42.652707      85.305414          16040 
    169000   2792.9524      300295.94      1047.6293      300417.37      299803.71      300666.73      137.92865      940.22411     -886.0127       5790.3587      3421.3939      9211.7526      155171.26      42.650792      42.650792      85.301584          16040 
    170000   2796.0081      303735.31      1054.0942      305093.39      302429.31      303683.24      1443.3292     -595.73886     -125.03869      5796.6937      3389.991       9186.6847      154950.85      42.630588      42.630588      85.261175          16040 
    171000   2832.4236      301752.46      1060.5621      301526.54      301125.51      302605.34     -2744.9955     -45.222483     -89.368883      5872.1903      3402.2506      9274.441       155160.38      42.649795      42.649795      85.29959           16040 
    172000   2788.7886      296429.34      1067.0282      294975.16      296860.92      297451.93     -607.07632     -1514.3275      2425.5277      5781.7262      3374.3696      9156.0958      155400.9       42.671821      42.671821      85.343642          16040 
    173000   2813.2175      300187.97      1073.494       300331.77      300202.96      300029.18      592.54804      268.62502      1005.3227      5832.3722      3354.688       9187.0603      155182.19      42.651793      42.651793      85.303586          16040 
    174000   2810.0354      303287.95      1079.9602      303689.25      302964.65      303209.94      1691.074      -1981.7595      641.32015      5825.7752      3397.2898      9223.065       155019.24      42.636859      42.636859      85.273718          16040 
    175000   2807.3499      299266.03      1086.4268      299629.63      299482.72      298685.75     -77.694273      1117.8273     -1130.774       5820.2076      3427.2519      9247.4595      155284.29      42.661145      42.661145      85.32229           16040 
    176000   2794.036       297907.01      1092.8931      297072.92      298956.43      297691.68     -71.701167     -1106.57        1285.4224      5792.6051      3378.8399      9171.445       155267.46      42.659604      42.659604      85.319208          16040 
    177000   2784.522       299175.04      1099.3582      298883.96      298329.23      300311.93      2883.0315      628.38184     -140.65943      5772.8806      3465.1417      9238.0223      155281.38      42.660879      42.660879      85.321758          16040 
    178000   2794.5996      305186.64      1105.8273      304493.96      306546.79      304519.18     -2197.334       342.21518      549.58977      5793.7736      3419.9464      9213.72        154937.23      42.629339      42.629339      85.258678          16040 
    179000   2802.9752      296904.68      1112.2935      296902.31      296302.66      297509.07     -824.69193     -572.24006     -426.10707      5811.1379      3338.8334      9149.9713      155390.79      42.670895      42.670895      85.341791          16040 
    180000   2796.4811      301139.36      1118.7603      300500.69      300829.96      302087.44     -3002.556       792.43142     -694.83308      5797.6743      3326.155       9123.8293      155070.66      42.641572      42.641572      85.283144          16040 
    181000   2804.0054      303789.37      1125.2238      302930.84      304996.75      303440.53      3495.6647     -959.60083     -717.2522       5813.2737      3440.9005      9254.1742      154967.69      42.632132      42.632132      85.264265          16040 
    182000   2799.6024      294136.5       1131.6921      294105.88      294354.13      293949.5      -373.50171      3544.3034     -1577.7602      5804.1454      3271.2626      9075.4079      155535.32      42.684121      42.684121      85.368242          16040 
    183000   2804.557       298153.57      1138.1583      297158.8       299364         297937.9      -2425.2787      1276.0372      1174.2612      5814.4172      3360.9924      9175.4097      155313.67      42.663835      42.663835      85.32767           16040 
    184000   2816.2397      302568.71      1144.6226      302245.21      303880.47      301580.45      150.50485     -1156.422       1297.0992      5838.6379      3402.781       9241.4189      155038.98      42.638669      42.638669      85.277338          16040 
    185000   2807.1646      297354.51      1151.0881      298063.21      297164.79      296835.52     -490.56228     -1006.7258     -2018.0425      5819.8233      3344.9648      9164.7882      155286.04      42.661305      42.661305      85.322611          16040 
    186000   2802.1959      298782.24      1157.5532      298144.13      298678.44      299524.13     -1318.4611     -1252.7164      373.42509      5809.5223      3421.1822      9230.7046      155251.55      42.658147      42.658147      85.316293          16040 
    187000   2804.5735      305586.11      1164.0179      304275.55      306021.71      306461.07      3909.0403      1864.9287     -148.00939      5814.4516      3540.1864      9354.6379      154935.05      42.629139      42.629139      85.258278          16040 
    188000   2800.9939      294627.72      1170.4849      294995.37      294135.31      294752.48     -1646.9741     -2301.7613     -2504.3852      5807.0302      3352.2683      9159.2985      155520.59      42.682773      42.682773      85.365547          16040 
    189000   2763.9342      300344.92      1176.9509      300135.07      300194.89      300704.8      -2000.436      -307.43135     -1196.0362      5730.198       3382.5632      9112.7612      155148.04      42.648664      42.648664      85.297328          16040 
    190000   2800.8072      301325.45      1183.4168      300150.15      302635.72      301190.48     -836.26389      177.00835     -346.16685      5806.6431      3472.6064      9279.2496      155140.44      42.647968      42.647968      85.295935          16040 
    191000   2785.1618      298078.13      1189.8834      298793.6       297756.92      297683.86     -1053.4644      1285.6617     -221.35454      5774.2071      3346.409       9120.6161      155280.18      42.660768      42.660768      85.321537          16040 
    192000   2788.4844      302129.47      1196.3495      302276.64      301048.97      303062.79      1188.4676      1652.7915      3521.3749      5781.0956      3460.5323      9241.6279      155129.91      42.647003      42.647003      85.294005          16040 
    193000   2793.8871      304827.23      1202.8203      305320.77      303329.15      305831.77     -1913.5547      2555.1302     -122.46985      5792.2964      3450.7541      9243.0505      154962.96      42.631699      42.631699      85.263398          16040 
    194000   2804.0992      297785.98      1209.2862      298100.84      298032.58      297224.51      1282.0736      1399.0014     -1307.6265      5813.4681      3440.0387      9253.5068      155331.63      42.66548       42.66548       85.33096           16040 
    195000   2793.0772      300573.84      1215.7519      299228.96      300508.47      301984.09     -486.0756       496.82878     -289.89266      5790.6173      3382.8669      9173.4841      155127.99      42.646827      42.646827      85.293654          16040 
    196000   2821.0681      297652.99      1222.217       297586.44      297354.77      298017.75     -780.70804      436.00154     -2100.3274      5848.6482      3309.626       9158.2742      155311.88      42.663672      42.663672      85.327344          16040 
    197000   2792.8901      300076.9       1228.6872      300299.3       298741.42      301189.99     -218.2491      -638.39714      392.69848      5790.2294      3429.3791      9219.6085      155200.62      42.653481      42.653481      85.306962          16040 
    198000   2811.7503      303897.68      1235.1562      304553.54      304795.11      302344.41     -566.63813     -1320.8637      519.10079      5829.3304      3418.3642      9247.6945      154960.72      42.631493      42.631493      85.262987          16040 
    199000   2793.9955      296930.07      1241.6242      297238.03      296966.59      296585.59     -166.07255      4222.1953     -1214.8389      5792.5211      3310.0332      9102.5543      155261.47      42.659055      42.659055      85.31811           16040 
    200000   2805.9591      300041.47      1248.0995      301065.24      299526.18      299533.01     -1162.9496      592.38675     -452.9096       5817.3241      3367.1039      9184.428       155170.88      42.650757      42.650757      85.301514          16040 
    201000   2802.6976      300640.2       1254.5625      300708.5       300041.31      301170.8       2296.6106      744.24746     -1307.7728      5810.5625      3410.6494      9221.2119      155203.78      42.653771      42.653771      85.307543          16040 
    202000   2794.1951      301644.97      1261.0251      301053.69      301038.68      302842.55     -750.99949      180.65575     -1060.7206      5792.935       3352.956       9145.891       155095.24      42.643825      42.643825      85.287651          16040 
    203000   2778.4438      296017.39      1267.488       297516.62      295856.18      294679.37     -2341.3781     -216.47132      1660.0255      5760.2792      3441.362       9201.6412      155456.46      42.676906      42.676906      85.353811          16040 
    204000   2813.1954      301749.1       1273.9517      301868.01      301623.76      301755.53      281.63129      585.28313      1868.8116      5832.3265      3402.9375      9235.264       155103.36      42.64457       42.64457       85.28914           16040 
    205000   2804.8484      298745.33      1280.4161      297481.15      299041.77      299713.07      1604.3366      1788.1525      283.94878      5815.0213      3379.8819      9194.9033      155203.63      42.653757      42.653757      85.307514          16040 
    206000   2811.6183      295369.74      1286.8786      294298.27      295367.13      296443.82     -1208.5213      913.06323     -37.587961      5829.0569      3352.4276      9181.4845      155400.55      42.671789      42.671789      85.343578          16040 
    207000   2804.9028      303256.5       1293.3419      305036.6       302245.77      302487.12     -27.183165      1582.3942     -707.77893      5815.1341      3466.5615      9281.6956      154991.16      42.634284      42.634284      85.268569          16040 
    208000   2784.6466      298098.17      1299.8058      299547.17      297359.95      297387.38     -2886.2758     -368.50966      3350.9496      5773.139       3331.9402      9105.0791      155216.1       42.6549        42.6549        85.3098            16040 
    209000   2806.401       297165.78      1306.2706      297420.45      296159.49      297917.41      231.0917       4114.9158      1162.548       5818.2404      3393.343       9211.5833      155310.55      42.66355       42.66355       85.3271            16040 
    210000   2772.4802      302813.24      1312.7323      303337.86      301412.24      303689.63     -937.62903      3542.3848     -133.24191      5747.9156      3356.1054      9104.0209      154916.09      42.6274        42.6274        85.254801          16040 
    211000   2804.7812      298280.19      1319.1939      298659.01      299279.19      296902.38     -3554.6376     -1307.4949      1934.8646      5814.8821      3389.2388      9204.1209      155274.68      42.660265      42.660265      85.320529          16040 
    212000   2765.0321      295885.32      1325.6565      295854.85      295722.04      296079.08      890.9628      -697.57949      124.64727      5732.4742      3374.7018      9107.176       155360.52      42.668125      42.668125      85.33625           16040 
    213000   2802.6438      302649.75      1332.12        302886.89      302263.31      302799.04     -2247.1123     -58.34105       1228.9676      5810.4507      3441.1399      9251.5906      155034.09      42.638221      42.638221      85.276441          16040 
    214000   2803.8429      300160.81      1338.5818      300426.74      300575.51      299480.18      2423.7717     -591.44007     -230.48034      5812.9368      3376.2256      9189.1624      155166.4       42.650347      42.650347      85.300693          16040 
    215000   2768.5705      299345.71      1345.043       301044.21      298743.6       298249.32     -1081.76       -1468.8514      2530.3959      5739.81        3321.0688      9060.8787      155095.96      42.643892      42.643892      85.287784          16040 
    216000   2805.318       301652.92      1351.5048      300859.67      300275.69      303823.39      610.03503     -1248.2365      480.52736      5815.9949      3420.3834      9236.3783      155086.71      42.643044      42.643044      85.286088          16040 
    217000   2767.26        297735.48      1357.9666      296996.13      297309.21      298901.1      -354.3792       107.17803      507.15283      5737.0931      3364.3304      9101.4235      155206.55      42.654025      42.654025      85.30805           16040 
    218000   2798.9442      293451.75      1364.4282      295378.08      293065.67      291911.5       1190.459      -2316.874       1928.9851      5802.7809      3343.7524      9146.5333      155535.41      42.684129      42.684129      85.368259          16040 
    219000   2793.0233      304336.21      1370.8902      302891.22      305493.08      304624.34      344.84867     -1586.4764     -1487.8794      5790.5056      3335.9524      9126.458       154879.7       42.624062      42.624062      85.248124          16040 
    220000   2793.5331      299641.88      1377.3516      300433.93      299124.68      299367.04     -118.37425      1852.273       3441.2705      5791.5626      3415.8388      9207.4013      155225.75      42.655784      42.655784      85.311567          16040 
    221000   2781.1067      299203.87      1383.8143      298260.05      298763.76      300587.81     -953.32589     -918.32903     -750.00781      5765.8001      3327.4952      9093.2953      155230.84      42.65625       42.65625       85.3125            16040 
    222000   2816.3981      299691.98      1390.2758      299366.84      298868.67      300840.42      2449.577      -1100.9097      450.98708      5838.9663      3397.0095      9235.9758      155181.55      42.651735      42.651735      85.30347           16040 
    223000   2814.3106      301879.75      1396.7402      300931.67      302179.59      302528        -1022.0314      855.99079     -461.64065      5834.6385      3378.9638      9213.6023      155061.42      42.640726      42.640726      85.281452          16040 
    224000   2812.2558      296153.03      1403.203       294909.92      297382.68      296166.48      823.18726      716.62837      1269.5062      5830.3785      3362.8579      9193.2364      155391.01      42.670916      42.670916      85.341832          16040 
    225000   2789.3732      299560.88      1409.6667      299570.59      299507.51      299604.55      956.74788      237.58452      368.35773      5782.9381      3406.4104      9189.3485      155100.72      42.644328      42.644328      85.288656          16040 
    226000   2816.7308      302567.98      1416.1299      303339.74      301349.23      303014.98      699.67096      1988.0894      758.11523      5839.656       3380.0243      9219.6803      155012.66      42.636256      42.636256      85.272511          16040 
    227000   2780.2915      297251.57      1422.5914      298994.63      295614.86      297145.21     -593.02598     -2737.0287     -1181.3613      5764.11        3431.1499      9195.2598      155300.18      42.6626        42.6626        85.3252            16040 
    228000   2807.0474      302190.45      1429.0526      300330.37      302682.33      303558.67      731.49154     -1076.7026      1386.1742      5819.5804      3337.0574      9156.6379      155096.53      42.643944      42.643944      85.287888          16040 
    229000   2808.6274      299909.76      1435.5148      298544.18      299413.77      301771.33      713.49044     -1683.8062      491.24544      5822.8561      3389.3702      9212.2264      155237.11      42.656824      42.656824      85.313647          16040 
    230000   2778.4757      296569.07      1441.9781      297047.59      296088.7       296570.93     -1999.1307     -917.87544      450.07626      5760.3455      3304.8942      9065.2397      155334.82      42.665772      42.665772      85.331543          16040 
    231000   2807.999       308310.6       1448.4422      308449.09      308471.58      308011.15     -417.85214     -1525.0834     -630.68649      5821.5533      3441.648       9263.2013      154745.99      42.611792      42.611792      85.223584          16040 
    232000   2821.3707      297467.83      1454.91        298663.38      296977.35      296762.77      424.91634      773.69518     -880.10485      5849.2756      3374.3006      9223.5762      155251.65      42.658156      42.658156      85.316311          16040 
    233000   2796.1653      298767.61      1461.3772      298271.57      299733.59      298297.68     -2388.296       2989.4247      1155.9659      5797.0196      3314.4244      9111.444       155202.49      42.653653      42.653653      85.307306          16040 
    234000   2786.583       302745.27      1467.8431      303144.86      301130.25      303960.71     -65.867234     -1666.2093      2267.4413      5777.1536      3463.1929      9240.3465      154961.74      42.631587      42.631587      85.263173          16040 
    235000   2801.4221      300007.46      1474.3057      300548.78      300267.94      299205.67     -92.102896      1251.6308     -66.193056      5807.9181      3384.1332      9192.0513      155106.33      42.644842      42.644842      85.289683          16040 
    236000   2804.1952      299384.18      1480.7705      299278.06      299801.54      299072.93      3512.4436     -1419.9471      2104.9511      5813.6671      3371.454       9185.1211      155237.58      42.656867      42.656867      85.313734          16040 
    237000   2778.0864      302104.77      1487.2355      303328.71      300412.47      302573.12      954.27773      445.48375     -1411.9978      5759.5384      3398.3169      9157.8553      155066.28      42.641172      42.641172      85.282343          16040 
    238000   2781.2396      300898.16      1493.6988      302411.46      299609.55      300673.47     -1972.9508      20.676613     -1852.9132      5766.0757      3372.4433      9138.519       155082.86      42.642691      42.642691      85.285382          16040 
    239000   2794.4498      298188.58      1500.1677      298259.71      298601.05      297704.99     -1892.4759      1268.372      -1224.334       5793.4629      3427.8243      9221.2872      155287.44      42.661434      42.661434      85.322868          16040 
    240000   2847.9023      302884.54      1506.6353      303602.58      301619.92      303431.13     -69.493101      2341.4569      398.46627      5904.2808      3375.8867      9280.1676      154998.13      42.634924      42.634924      85.269848          16040 
    241000   2804.3549      298194.09      1513.1012      298093.92      298523.05      297965.3      -1295.719       929.11394     -20.238219      5813.9983      3330.2075      9144.2058      155227.74      42.655966      42.655966      85.311931          16040 
    242000   2834.2584      296575.22      1519.5693      295141.17      297114.76      297469.73      382.92606      759.08059     -3230.7496      5875.9943      3322.261       9198.2553      155334.57      42.665749      42.665749      85.331499          16040 
    243000   2790.1362      302033.28      1526.0356      302455.47      302178.03      301466.32     -578.57997      1099.2378     -506.83537      5784.5201      3406.5827      9191.1028      155057.83      42.640396      42.640396      85.280793          16040 
    244000   2789.5722      300740.05      1532.5042      300228.19      300527.98      301463.97     -379.24809     -2303.6255      638.97125      5783.3508      3400.1654      9183.5162      155096.75      42.643964      42.643964      85.287928          16040 
    245000   2793.4024      298102.78      1538.9717      298996.05      297219.95      298092.34     -1827.7404      1119.0348     -2518.5804      5791.2914      3337.8661      9129.1576      155209.15      42.654263      42.654263      85.308527          16040 
    246000   2801.9239      299207.97      1545.4349      298382.51      299520.16      299721.24      428.63382     -2360.066       1146.5338      5808.9584      3464.534       9273.4923      155222.72      42.655506      42.655506      85.311012          16040 
    247000   2817.6115      300605.22      1551.8956      300892.96      301374.18      299548.51     -864.66847      1140.68       -1682.5228      5841.482       3361.6089      9203.091       155103.45      42.644578      42.644578      85.289156          16040 
    248000   2829.7604      299142.73      1558.357       297680.53      299213.46      300534.18      699.8177      -821.54551     -1076.2732      5866.6691      3449.753       9316.4221      155280.12      42.660763      42.660763      85.321526          16040 
    249000   2811.8107      299187.44      1564.8185      300186.21      299855.48      297520.64     -931.79135     -2664.3293     -1163.9666      5829.4556      3347.6724      9177.128       155218.43      42.655113      42.655113      85.310226          16040 
    250000   2808.517       305039.99      1571.279       305559.49      304882.98      304677.49     -642.99352      5134.445      -458.90215      5822.6273      3382.7665      9205.3938      154846.87      42.62105       42.62105       85.2421            16040 
    251000   2810.073       298360.76      1577.7421      300014.73      296669.42      298398.13     -1917.4305      708.66854      1672.3643      5825.853       3416.2255      9242.0785      155300.85      42.662662      42.662662      85.325323          16040 
    252000   2817.3626      299264.94      1584.2024      299612.05      298315.78      299866.98     -406.57289     -546.23158     -762.83802      5840.9658      3329.9462      9170.912       155188.8       42.652399      42.652399      85.304798          16040 
    253000   2803.9405      300214.65      1590.663       299640.44      299965.15      301038.36     -1112.8649     -638.79802     -308.46819      5813.1392      3331.6894      9144.8286      155070.33      42.641542      42.641542      85.283084          16040 
    254000   2838.3772      300607.03      1597.1275      300962.14      300870.72      299988.23     -642.16736      2391.5777      1239.2568      5884.5334      3331.7176      9216.2511      155132.49      42.64724       42.64724       85.294479          16040 
    255000   2796.5508      300899         1603.5892      299898.14      300668.69      302130.19      559.91456      734.88734     -25.388826      5797.8188      3314.098       9111.9169      155121.63      42.646244      42.646244      85.292488          16040 
    256000   2788.3428      295179.9       1610.0547      295327.41      295122.61      295089.69     -1352.2251      1791.5447      1295.3731      5780.8019      3302.5086      9083.3105      155432.06      42.674673      42.674673      85.349346          16040 
    257000   2806.4628      304780.38      1616.5205      305014.53      305378.98      303947.64     -214.48363     -1149.5419     -2485.1226      5818.3685      3344.1667      9162.5352      154884.5       42.624502      42.624502      85.249004          16040 
    258000   2833.0888      299703.08      1622.9868      297902.84      300565.45      300640.95     -1180.1825      2910.496       1054.223       5873.5695      3335.4509      9209.0204      155200.99      42.653515      42.653515      85.30703           16040 
    259000   2816.1141      296134.75      1629.453       294070.72      297427.76      296905.76     -1669.2259     -1841.6879      2667.9201      5838.3774      3290.5251      9128.9025      155393.36      42.671131      42.671131      85.342263          16040 
    260000   2803.5258      302101         1639.3469      302765.64      300401.82      303135.54     -1684.0788     -4071.201       1155.7204      5812.2794      3367.7363      9180.0156      155063.48      42.640914      42.640914      85.281828          16040 
    261000   2814.5373      301991.33      1645.8283      302199.65      301662.12      302112.23      1028.3207      2061.2649      1825.3013      5835.1084      3409.3658      9244.4742      155069.68      42.641483      42.641483      85.282966          16040 
    262000   2802.9336      299530.06      1652.2941      299091.31      299484.53      300014.33      168.54907      882.62525      424.54995      5811.0516      3287.9475      9098.9992      155150.82      42.648919      42.648919      85.297838          16040 
    263000   2817.6009      301640.84      1658.7606      303178.88      300893.83      300849.82      2270.0565      994.95162      3010.9858      5841.46        3389.0407      9230.5007      155069.69      42.641484      42.641484      85.282968          16040 
    264000   2799.3043      300375.61      1665.2254      300796.17      300079.93      300250.72      439.86141      488.62224     -2181.2076      5803.5275      3375.5101      9179.0375      155127.62      42.646793      42.646793      85.293586          16040 
    265000   2793.9716      296781.18      1671.6908      295880.05      298089.53      296373.97     -1606.0945      33.918251     -963.58483      5792.4716      3359.0823      9151.5539      155353.28      42.667462      42.667462      85.334925          16040 
    266000   2813.0288      301880.06      1678.157       302371.17      301797.9       301471.12      600.43582      333.656        2238.5139      5831.9811      3381.7363      9213.7174      155046.46      42.639354      42.639354      85.278708          16040 
    267000   2769.1         300172.31      1684.6202      300158.4       300279.13      300079.4      -2012.7194      1996.2037      2275.4242      5740.9078      3404.6363      9145.5441      155161.19      42.649869      42.649869      85.299738          16040 
    268000   2787.5844      295922.68      1691.0837      296154.11      295089.53      296524.4       1345.4366     -2582.1268     -632.02218      5779.2297      3332.797       9112.0266      155341.31      42.666366      42.666366      85.332733          16040 
    269000   2813.0926      307456.48      1697.5483      307105.37      308211.77      307052.31     -659.49467      1691.9318      958.24272      5832.1134      3360.6281      9192.7415      154721.38      42.609533      42.609533      85.219067          16040 
    270000   2799.8826      300720.79      1704.0108      301164.99      301251.77      299745.6      -1201.0931      833.16708     -1280.9849      5804.7264      3370.3703      9175.0967      155166.11      42.65032       42.65032       85.30064           16040 
    271000   2761.0479      298208.13      1710.4738      298140.87      297997.42      298486.08     -583.00473      1354.9826     -3272.401       5724.2141      3361.0503      9085.2644      155229.41      42.656119      42.656119      85.312238          16040 
    272000   2800.7571      301526.26      1716.936       300760.14      301663.03      302155.59      3371.9261     -242.97919     -105.5974       5806.5394      3420.1555      9226.6949      155115.61      42.645692      42.645692      85.291384          16040 
    273000   2770.4424      300487.07      1723.4001      300971.9       300811.73      299677.58     -3040.7235     -810.10603      2400.8124      5743.6907      3391.9451      9135.6358      155117.05      42.645824      42.645824      85.291648          16040 
    274000   2805.3731      297012.9       1729.8635      296533.55      298349.99      296155.17     -2117.3945     -578.27008     -676.42909      5816.1092      3362.9843      9179.0935      155317.16      42.664155      42.664155      85.32831           16040 
    275000   2793.5979      302856.35      1736.3295      303061.23      302347.06      303160.75     -2925.8671     -2875.4021      2472.582       5791.6969      3351.3097      9143.0066      154994.83      42.63462       42.63462       85.269241          16040 
    276000   2789.7476      300172.63      1742.7913      300830.34      299447.32      300240.24      1522.1982     -221.42376      80.165992      5783.7145      3408.983       9192.6975      155095.46      42.643845      42.643845      85.287691          16040 
    277000   2801.4139      296387.77      1749.253       295895.25      297036.63      296231.43      1586.0689      364.75939     -816.96274      5807.901       3321.8222      9129.7232      155390.78      42.670895      42.670895      85.34179           16040 
    278000   2790.1178      302657.05      1755.7152      303058         302287.36      302625.8       351.11538     -26.004173      1429.0328      5784.482       3408.1134      9192.5954      154982.24      42.633466      42.633466      85.266932          16040 
    279000   2802.3157      299589.95      1762.1811      300860.84      299430.48      298478.54      1308.2028      3051.9294     -796.56895      5809.7706      3406.45        9216.2206      155215.49      42.654844      42.654844      85.309687          16040 
    280000   2792.8134      299702.66      1768.642       300291.33      299144.79      299671.87      2036.2363     -1225.2941     -518.95705      5790.0704      3395.8794      9185.9498      155123.33      42.6464        42.6464        85.2928            16040 
    281000   2775.7545      302007.98      1775.1041      303364.31      302171.01      300488.61     -954.75734      1338.812       133.0916       5754.7038      3399.4502      9154.154       154967.98      42.632159      42.632159      85.264318          16040 
    282000   2813.1667      300556.48      1781.5708      299762.31      300920.68      300986.44     -338.9712      -267.12682      1145.8486      5832.267       3382.2904      9214.5574      155128.71      42.646893      42.646893      85.293786          16040 
    283000   2777.0404      295288.24      1788.0382      294446.45      294883.96      296534.3       528.05193     -225.28152      2053.5952      5757.3697      3317.1685      9074.5382      155368.73      42.668876      42.668876      85.337752          16040 
    284000   2794.9936      302367.3       1794.5027      301629.84      302902.41      302569.64     -4423.9735     -1156.2531      102.94548      5794.5904      3388.3598      9182.9502      155047.09      42.639412      42.639412      85.278824          16040 
    285000   2767.9234      298484.15      1800.9684      297881.59      299239.4       298331.47      494.642        339.4465       555.1146       5738.4684      3368.8053      9107.2736      155294.43      42.662074      42.662074      85.324147          16040 
    286000   2785.659       298454.77      1807.437       298528.26      298879.56      297956.5      -420.43749     -1139.0856     -1079.3736      5775.2379      3318.3697      9093.6077      155247.21      42.657749      42.657749      85.315498          16040 
[...]
   3930000   2763.2148      300270.87      6998.9536      300964.7       300579.16      299268.76     -123.29914      965.23296      1447.9848      5728.7065      3997.8828      9726.5893      155295.31      42.640513      42.640513      85.41094           16040 
   3931000   2775.7697      299999.27      7006.4827      301357.98      300672.66      297967.18     -913.99754      2034.8233     -988.15404      5754.7353      3978.1777      9732.913       155259.73      42.637256      42.637256      85.404416          16040 
   3932000   2767.2948      294278.07      7014.0151      295403.05      294342.92      293088.23      1328.4291     -1998.0106      1374.3018      5737.1651      3928.0286      9665.1937      155620.22      42.67023       42.67023       85.470464          16040 
   3933000   2780.8619      305435.84      7021.5449      306043.24      305036.59      305227.69     -1342.6437      1804.9571      1933.4837      5765.2925      4006.8469      9772.1394      155045.31      42.617619      42.617619      85.365083          16040 
   3934000   2764.0347      298941.1       7029.0826      298035.01      300227.99      298560.32     -1634.3404     -423.78393     -1309.6804      5730.4064      3992.5         9722.9064      155305.64      42.641458      42.641458      85.412834          16040 
   3935000   2760.2572      296848.73      7036.6127      297777.48      296652.83      296115.89      1759.4073      1005.4117     -1463.5136      5722.5749      3962.5541      9685.129       155506.4       42.659824      42.659824      85.449622          16040 
   3936000   2763.2299      301395.06      7044.1519      303462.78      301484.24      299238.18      600.7918       1023.5034      330.92159      5728.7377      4010.3147      9739.0524      155214.45      42.633111      42.633111      85.396113          16040 
   3937000   2774.9415      301203.76      7051.6871      303457.04      299756.13      300398.11     -2491.8301     -3897.3114      1518.3495      5753.0184      3978.6433      9731.6617      155253.81      42.636714      42.636714      85.403331          16040 
   3938000   2737.6771      294805.18      7059.2267      294467.55      294724.52      295223.48     -3115.5058      527.90999      1873.3032      5675.7616      3992.6635      9668.4251      155594.83      42.667909      42.667909      85.465817          16040 
   3939000   2772.2641      299378.32      7066.7612      299644.25      299950.63      298540.08     -4719.8175     -2383.0876      589.21804      5747.4676      3977.0112      9724.4788      155292.54      42.640259      42.640259      85.410433          16040 
   3940000   2768.7361      303448.26      7074.2969      304459.07      303777.85      302107.85      1558.2564     -1920.4083      130.7723       5740.1532      4012.19        9752.3432      155144.4       42.626696      42.626696      85.383265          16040 
   3941000   2757.8017      298925.64      7081.8365      298772.24      300733.88      297270.81     -1786.5454     -240.13494      626.50518      5717.4841      3993.6666      9711.1507      155363.14      42.64672       42.64672       85.423373          16040 
   3942000   2767.6568      300468.12      7089.3738      300634.63      301082.27      299687.45     -2410.2873     -260.68588      122.87832      5737.9156      3980.3068      9718.2224      155325         42.64323       42.64323       85.416382          16040 
   3943000   2785.9903      300861.02      7096.9075      301946.48      299975.41      300661.18     -2300.9442     -786.69608      1970.7353      5775.9248      3944.4958      9720.4205      155311.64      42.642007      42.642007      85.413934          16040 
   3944000   2759.2793      298866.31      7104.4423      298767.28      299301.85      298529.8      -2679.2436      537.22751      1623.1332      5720.5474      3975.6508      9696.1983      155437.99      42.653568      42.653568      85.43709           16040 
   3945000   2758.9477      302471.06      7111.9764      304709.67      301509.64      301193.87     -913.18019      2555.306      -2590.8933      5719.8598      4035.2504      9755.1102      155123.51      42.624782      42.624782      85.379432          16040 
   3946000   2751.8833      301345.31      7119.5129      300766.8       302615.36      300653.79     -3278.5343      1041.0899     -1050.4603      5705.214       4028.4678      9733.6818      155235.31      42.635021      42.635021      85.399939          16040 
   3947000   2761.6836      296144.76      7127.0482      297451.41      297964.72      293018.16     -955.48968     -1768.7996     -809.55426      5725.532       3958.4777      9684.0097      155497.53      42.659013      42.659013      85.447998          16040 
   3948000   2761.6534      301969.86      7134.5837      301735.66      303912.6       300261.33     -1190.3794     -894.62176     -714.1967       5725.4695      4016.5942      9742.0637      155185.14      42.630427      42.630427      85.390738          16040 
   3949000   2758.3599      305377.58      7142.1233      305273.72      306908.44      303950.59      2214.8937     -244.49186     -1212.2234      5718.6413      4057.4693      9776.1106      154997.36      42.613225      42.613225      85.356282          16040 
   3950000   2778.6391      297752.34      7149.662       300178.84      298207.13      294871.06     -1209.9591     -2644.3046      461.80578      5760.6842      3932.0356      9692.7198      155440.11      42.653762      42.653762      85.437479          16040 
   3951000   2771.5864      300836.29      7157.193       299681.8       302814.52      300012.53      266.69243     -1302.1318      2771.9274      5746.0625      3977.8335      9723.896       155272.22      42.638399      42.638399      85.406706          16040 
   3952000   2791.759       299864.31      7164.7219      300676         300160.43      298756.5      -236.35152     -2813.4769     -1050.4004      5787.8845      3932.4417      9720.3261      155290.3       42.640054      42.640054      85.410022          16040 
   3953000   2763.5898      298796.74      7172.2527      300160.29      298600.7       297629.21     -331.68068      330.52905      3952.5166      5729.484       3966.4704      9695.9544      155420.17      42.651938      42.651938      85.433825          16040 
   3954000   2747.4073      302376.15      7179.7816      302622.09      302802.16      301704.19      24.58781      -315.97244      1312.6667      5695.9343      4043.3846      9739.3189      155188.34      42.63072       42.63072       85.391324          16040 
   3955000   2759.5384      304420.59      7187.3122      304775.6       304464.82      304021.37     -2953.2954     -1872.5447      407.483        5721.0845      4040.8404      9761.9249      155064.66      42.619392      42.619392      85.368635          16040 
   3956000   2752.5533      296169.75      7194.84        297508.69      296731.87      294268.7      -598.53183     -2252.208      -933.58528      5706.6031      3969.2169      9675.8199      155521.48      42.661203      42.661203      85.452384          16040 
   3957000   2755.443       298394.69      7202.3678      298604.97      299108.35      297470.75      479.07237     -952.18035     -749.40322      5712.5939      3996.4285      9709.0224      155342.29      42.644813      42.644813      85.419553          16040 
   3958000   2761.3729      302501.47      7209.8943      303114.62      302816.55      301573.25     -251.75979      549.12311      1570.0785      5724.8879      4017.8334      9742.7213      155160.43      42.628164      42.628164      85.386206          16040 
   3959000   2756.8787      299620.77      7217.4274      299960.37      300091.66      298810.29     -4114.5839     -4919.6668      2312.1479      5715.5706      3995.387       9710.9576      155326.89      42.643403      42.643403      85.416729          16040 
   3960000   2756.313       298571.44      7224.9717      298176.65      300203.61      297334.06     -3022.4798     -3288.2863      1995.3905      5714.3976      3984.0453      9698.4429      155392.15      42.649374      42.649374      85.42869           16040 
   3961000   2764.3159      305897.6       7232.5029      306629.81      306132.92      304930.06     -152.22918      273.74777     -298.17946      5730.9894      4041.0931      9772.0825      154998.32      42.613313      42.613313      85.356458          16040 
   3962000   2757.4894      300146.36      7240.0401      301477.13      300584.47      298377.5       293.78265     -2277.9547      358.31377      5716.8366      3993.7494      9710.586       155324.79      42.643211      42.643211      85.416344          16040 
   3963000   2759.5334      299297.32      7247.5727      299184.75      300008.41      298698.82      573.03409     -347.92162     -1656.8989      5721.0742      3982.341       9703.4152      155352.74      42.645768      42.645768      85.421467          16040 
   3964000   2774.3645      300346.97      7255.1063      301413.55      300892.74      298734.61     -2170.4547      208.48519      803.57927      5751.8221      3967.2891      9719.1113      155266.6       42.637885      42.637885      85.405677          16040 
   3965000   2744.8794      305955.74      7262.6417      306182.18      306958.29      304726.74     -2103.1496      1980.316      -44.360728      5690.6935      4086.7714      9777.4649      154957.49      42.609571      42.609571      85.348962          16040 
   3966000   2751.0747      298543.52      7270.1803      299077.86      301439.86      295112.84     -2640.0514      2104.5189      457.97351      5703.5376      3987.7506      9691.2883      155414.71      42.651438      42.651438      85.432824          16040 
   3967000   2769.6234      297515.67      7277.7184      296506.58      297259.06      298781.36     -1341.3848     -3758.6371     -960.18802      5741.9929      3955.9666      9697.9594      155377.76      42.648058      42.648058      85.426053          16040 
   3968000   2784.2544      303247.93      7285.2473      305424.48      304642.27      299677.03      1700.0362      296.22821     -2582.0463      5772.3259      3961.0609      9733.3868      155185.15      42.630428      42.630428      85.39074           16040 
   3969000   2766.1357      302901.17      7292.7854      303571.22      303884.42      301247.87     -1692.728       1546.9685      879.41431      5734.7621      4000.5444      9735.3065      155172.89      42.629305      42.629305      85.388491          16040 
   3970000   2751.7673      296562.54      7300.3168      297463.38      295189.61      297034.63     -1302.4795     -2090.9887     -326.53648      5704.9736      3964.6795      9669.653       155522.98      42.66134       42.66134       85.452659          16040 
   3971000   2769.7508      299911.69      7307.8445      299527.98      300772.68      299434.42     -710.18404     -1212.726      -1576.8473      5742.2571      3972.1634      9714.4204      155282.45      42.639336      42.639336      85.408583          16040 
   3972000   2765.3471      300514.69      7315.3804      302881.72      299916.06      298746.3      -1485.9055      429.85033     -643.83413      5733.1271      3973.8116      9706.9387      155321.84      42.642941      42.642941      85.415804          16040 
   3973000   2764.2227      300445.68      7322.9144      299972.24      302396.94      298967.88     -378.17185     -1135.3555      611.5866       5730.796       3979.9273      9710.7233      155299.39      42.640886      42.640886      85.411689          16040 
   3974000   2771.5122      297561.44      7330.447       297493.36      298995.4       296195.58     -2129.5866     -483.99252      2020.7132      5745.9087      3935.7122      9681.6209      155453.42      42.654979      42.654979      85.439917          16040 
   3975000   2770.6982      305502.46      7337.9885      305176.33      306909.57      304421.48     -3055.9902      895.58049      2524.3265      5744.221       4003.896       9748.117       155096.35      42.622295      42.622295      85.37445           16040 
   3976000   2778.3566      300710.94      7345.5181      302000.52      300323.66      299808.64     -1730.699       1865.0804     -1177.0889      5760.0986      3959.005       9719.1036      155249.78      42.636345      42.636345      85.402593          16040 
   3977000   2759.7541      298701.74      7353.0469      299410.11      299005.25      297689.86     -2213.5093     -1333.7865      1896.9346      5721.5319      3968.594       9690.1258      155402.36      42.650308      42.650308      85.430561          16040 
   3978000   2759.7915      302979.62      7360.5776      301948.95      304988.97      302000.94     -3704.4691      246.65645      243.48738      5721.6094      4000.5657      9722.175       155227.44      42.6343        42.6343        85.398496          16040 
   3979000   2735.7717      302275.22      7368.1021      302952.94      302594.97      301277.74     -798.07309     -3154.4559      1817.8043      5671.8114      4062.9369      9734.7483      155161.76      42.628286      42.628286      85.386449          16040 
   3980000   2775.196       293827.4       7375.6434      294700.55      295259.87      291521.78      37.875007     -484.43404      89.337862      5753.5459      3887.5967      9641.1426      155662.17      42.674064      42.674064      85.478144          16040 
   3981000   2778.079       300478.63      7383.1676      299622.95      302557.75      299255.17     -302.97041      263.87661      2147.5021      5759.523       3950.8065      9710.3295      155286.96      42.639748      42.639748      85.409409          16040 
   3982000   2753.7611      301558.02      7390.6914      303511.06      302196.18      298966.81     -839.03262     -4016.8612     -528.01974      5709.107       4009.7677      9718.8747      155239.4       42.635395      42.635395      85.400688          16040 
   3983000   2749.6346      298152.27      7398.2112      298223.04      299019.44      297214.34     -2670.8422     -811.66993      1110.3117      5700.552       3978.5295      9679.0815      155451.35      42.65479       42.65479       85.439538          16040 
   3984000   2772.5821      302896.41      7405.7357      305824.48      302726.98      300137.76      125.63835     -2853.91        714.28468      5748.1268      3992.3123      9740.4391      155124.12      42.624839      42.624839      85.379544          16040 
   3985000   2763.7654      304631.24      7413.2614      304602.36      305093.48      304197.87     -1928.5587      894.80309     -2159.2885      5729.8481      4022.4818      9752.3299      155056.81      42.618673      42.618673      85.367194          16040 
   3986000   2762.1842      296765.57      7420.7944      299512.73      296738.82      294045.16     -1229.7261     -2500.2716      2654.7486      5726.5698      3959.0135      9685.5832      155410.25      42.65103       42.65103       85.432007          16040 
   3987000   2763.8907      300173.81      7428.3204      301023.7       301514.85      297982.87     -1702.0021     -2732.381       795.65452      5730.1078      3976.4348      9706.5426      155295.9       42.640567      42.640567      85.411049          16040 
   3988000   2779.999       300513.54      7435.8517      302031         299878.74      299630.9      -1508.1914     -412.48418      1393.8316      5763.5035      3953.9657      9717.4691      155237.17      42.635191      42.635191      85.400281          16040 
   3989000   2740.2436      299529.51      7443.3839      301418.44      299197.14      297972.94      1559.12       -1193.4471      340.70662      5681.0826      4013.2037      9694.2863      155359.86      42.64642       42.64642       85.422772          16040 
   3990000   2803.6628      298392.9       7450.9116      298755.9       299513.7       296909.1      -1071.1214      524.33702     -496.39716      5812.5634      3869.993       9682.5564      155420.11      42.651932      42.651932      85.433813          16040 
   3991000   2768.6873      304599.03      7458.4455      305885.37      304910.41      303001.3      -1116.6223     -2361.3137      657.39333      5740.0521      4011.2518      9751.304       155054.37      42.618449      42.618449      85.366746          16040 
   3992000   2722.3596      296948.53      7465.9785      297379.78      297101.43      296364.38     -3501.901      -1413.9475      657.16031      5644.0054      4031.8359      9675.8413      155453.74      42.655008      42.655008      85.439976          16040 
   3993000   2757.3585      299931.18      7473.5057      300110.25      300007.43      299675.86     -506.30874     -849.23725     -229.98792      5716.5652      3979.6602      9696.2253      155344.24      42.644991      42.644991      85.41991           16040 
   3994000   2771.0477      300434.93      7481.0403      301373.67      300139.15      299791.99      53.356377     -661.81096      2235.1801      5744.9456      3965.031       9709.9766      155268.65      42.638073      42.638073      85.406052          16040 
   3995000   2785.5398      300476.73      7488.5693      299812.71      301652.61      299964.88     -1866.6419     -85.532497      1420.7436      5774.9907      3938.8918      9713.8825      155246.66      42.63606       42.63606       85.402021          16040 
   3996000   2767.9825      300437.4       7496.0984      301878.54      301137.76      298295.91     -1147.7117     -433.5545      -1354.8884      5738.5908      3974.5387      9713.1295      155250.35      42.636397      42.636397      85.402697          16040 
   3997000   2767.6373      299887.66      7503.6267      299794.93      300627.84      299240.2      -1819.8917      2680.2191      247.21004      5737.8752      3965.2695      9703.1447      155302.88      42.641206      42.641206      85.412328          16040 
   3998000   2775.4219      299269.15      7511.1561      298748.33      299853.69      299205.42      319.35394     -1965.1467     -89.60051       5754.0143      3948.4928      9702.5072      155305.54      42.641449      42.641449      85.412816          16040 
   3999000   2742.5234      299892.32      7518.6891      300001.57      299755.61      299919.8      -233.40783     -1939.5695      1912.6202      5685.8091      4012.6389      9698.4479      155327.04      42.643417      42.643417      85.416757          16040 
   4000000   2766.8822      299151.4       7526.2281      301029.71      298497.76      297926.74     -3582.4962      2491.0545     -228.85432      5736.3098      3964.0438      9700.3536      155314.55      42.642273      42.642273      85.414467          16040 
Loop time of 7526.23 on 8 procs for 1000000 steps with 16040 atoms

Performance: 5.740 ns/day, 4.181 hours/ns, 132.869 timesteps/s
59.4% CPU use with 1 MPI tasks x 8 OpenMP threads

MPI task timing breakdown:
Section |  min time  |  avg time  |  max time  |%varavg| %total
---------------------------------------------------------------
Pair    | 7242.5     | 7242.5     | 7242.5     |   0.0 | 96.23
Neigh   | 7.4316     | 7.4316     | 7.4316     |   0.0 |  0.10
Comm    | 37.048     | 37.048     | 37.048     |   0.0 |  0.49
Output  | 1.2971     | 1.2971     | 1.2971     |   0.0 |  0.02
Modify  | 209.48     | 209.48     | 209.48     |   0.0 |  2.78
Other   |            | 28.47      |            |       |  0.38

Nlocal:          16040 ave       16040 max       16040 min
Histogram: 1 0 0 0 0 0 0 0 0 0
Nghost:          13761 ave       13761 max       13761 min
Histogram: 1 0 0 0 0 0 0 0 0 0
Neighs:              0 ave           0 max           0 min
Histogram: 1 0 0 0 0 0 0 0 0 0
FullNghs:  1.48727e+06 ave 1.48727e+06 max 1.48727e+06 min
Histogram: 1 0 0 0 0 0 0 0 0 0

Total # of neighbors = 1487268
Ave neighs/atom = 92.722444
Neighbor list builds = 22931
Dangerous builds = 0
Total wall time: 7:51:29
