
atom_style atomic
units metal
boundary p p p
#atom_modify sort 0 0.0
newton on

read_data data.lammps
Reading data file ...
  orthogonal box = (0 0 0) to (43.790145 43.790145 87.58029)
  1 by 1 by 1 MPI processor grid
  reading atoms ...
  16040 atoms
  read_data CPU = 0.040 seconds
# replicate 10 10 20

### interactions

pair_style flare
pair_coeff * * lmp.flare
Reading potential file lmp.flare with DATE: Thu

# compute unc all flare/std/atom L_inv_lmp.flare sparse_desc_lmp.flare
# compute MaxUnc all reduce max c_unc

mass 1 12.011000
mass 2 28.085000

thermo_style custom step temp press cpu pxx pyy pzz pxy pxz pyz ke pe etotal vol lx ly lz atoms    #c_MaxUnc
thermo 1000
timestep 0.0005
restart 100000 restart_*.dat

#################### Equilibrate at P and T_es ##############################
velocity all create $T 41928459 rot yes dist gaussian
velocity all create 3800 41928459 rot yes dist gaussian
fix mom all momentum 1000 linear 1 1 1 angular

fix 1 all npt temp $T $T $(100.0*dt) iso $P $P $(1000.0*dt)
fix 1 all npt temp 3800 $T $(100.0*dt) iso $P $P $(1000.0*dt)
fix 1 all npt temp 3800 3800 $(100.0*dt) iso $P $P $(1000.0*dt)
fix 1 all npt temp 3800 3800 0.050000000000000002776 iso $P $P $(1000.0*dt)
fix 1 all npt temp 3800 3800 0.050000000000000002776 iso 600000 $P $(1000.0*dt)
fix 1 all npt temp 3800 3800 0.050000000000000002776 iso 600000 600000 $(1000.0*dt)
fix 1 all npt temp 3800 3800 0.050000000000000002776 iso 600000 600000 0.5
dump 1 all custom 1000 1equil.bin id type x y z vx vy vz
run   10000 # report performance
Neighbor list info ...
  update every 1 steps, delay 10 steps, check yes
  max neighbors/atom: 2000, page size: 100000
  master list distance cutoff = 6
  ghost atom cutoff = 6
  binsize = 6, bins = 8 8 15
  1 neighbor lists, perpetual/occasional/extra = 1 0 0
  (1) pair flare/kk, perpetual
      attributes: full, newton on, kokkos_device
      pair build: full/bin/kk/device
      stencil: full/bin/3d
      bin: kk/device
Per MPI rank memory allocation (min/avg/max) = 16.04 | 16.04 | 16.04 Mbytes
   Step          Temp          Press           CPU            Pxx            Pyy            Pzz            Pxy            Pxz            Pyz           KinEng         PotEng         TotEng         Volume           Lx             Ly             Lz          Atoms   
         0   3800           84539.211      0              85134.427      84099.503      84383.704      1075.1264     -195.07342     -877.12361      7878.1732     -2985.8921      4892.2811      167941.93      43.790145      43.790145      87.58029           16040 
      1000   3906.4503      599545.61      7.0489326      596638.72      599700.09      602298.01      2115.8922      375.08727     -960.99542      8098.8663      8902.545       17001.411      143184         41.522946      41.522946      83.045893          16040 
      2000   3790.5074      600199.24      14.475958      599640.28      598755.96      602201.48      1962.0249      2285.6315     -236.31811      7858.4931      8657.5769      16516.07       142815.5       41.487294      41.487294      82.974589          16040 
      3000   3879.2065      598149.33      21.905186      596902.63      599803.22      597742.14     -2855.8855      2359.9426     -1596.6553      8042.3844      8702.2582      16744.643      142837.78      41.489452      41.489452      82.978904          16040 
      4000   3808.3973      600031.46      29.331753      599861.09      599247.17      600986.12     -513.6789       1831.7892     -1168.3436      7895.5825      8737.2059      16632.788      142797.08      41.485511      41.485511      82.971021          16040 
      5000   3796.3029      598778.79      36.759096      596484.66      599265.03      600586.68      1576.0737     -2193.4834      1748.2062      7870.5082      8737.2739      16607.782      142798.54      41.485653      41.485653      82.971305          16040 
      6000   3812.1754      598201.93      44.190953      599302.34      598779.56      596523.89     -4466.6323     -1128.2426     -1568.4495      7903.4152      8759.5985      16663.014      142893.27      41.494824      41.494824      82.989647          16040 
      7000   3784.8479      597691.93      51.618         595253.5       598522.16      599300.12      302.25717     -1236.5961      618.65917      7846.7597      8705.3819      16552.142      142779.56      41.483815      41.483815      82.967629          16040 
      8000   3799.0024      601321.73      59.049776      602689.44      600887.2       600388.55      1076.431      -3816.8414     -1872.8273      7876.105       8830.1502      16706.255      142754.14      41.481352      41.481352      82.962704          16040 
      9000   3753.7256      605144.22      66.483685      604341.15      606682.98      604408.52     -734.87456     -4786.3979     -674.81456      7782.237       8781.1405      16563.377      142532.55      41.459878      41.459878      82.919755          16040 
     10000   3823.7672      593980.48      73.91247       592722.05      594042.04      595177.33      536.02831     -3577.6228      3638.4147      7927.4473      8691.5025      16618.95       142952.09      41.500517      41.500517      83.001034          16040 
Loop time of 73.9125 on 8 procs for 10000 steps with 16040 atoms

Performance: 5.845 ns/day, 4.106 hours/ns, 135.295 timesteps/s
61.2% CPU use with 1 MPI tasks x 8 OpenMP threads

MPI task timing breakdown:
Section |  min time  |  avg time  |  max time  |%varavg| %total
---------------------------------------------------------------
Pair    | 70.846     | 70.846     | 70.846     |   0.0 | 95.85
Neigh   | 0.11759    | 0.11759    | 0.11759    |   0.0 |  0.16
Comm    | 0.38301    | 0.38301    | 0.38301    |   0.0 |  0.52
Output  | 0.012935   | 0.012935   | 0.012935   |   0.0 |  0.02
Modify  | 2.2981     | 2.2981     | 2.2981     |   0.0 |  3.11
Other   |            | 0.2553     |            |       |  0.35

Nlocal:          16040 ave       16040 max       16040 min
Histogram: 1 0 0 0 0 0 0 0 0 0
Nghost:          13917 ave       13917 max       13917 min
Histogram: 1 0 0 0 0 0 0 0 0 0
Neighs:              0 ave           0 max           0 min
Histogram: 1 0 0 0 0 0 0 0 0 0
FullNghs:  1.62527e+06 ave 1.62527e+06 max 1.62527e+06 min
Histogram: 1 0 0 0 0 0 0 0 0 0

Total # of neighbors = 1625266
Ave neighs/atom = 101.32581
Neighbor list builds = 298
Dangerous builds = 0
run  990000
Per MPI rank memory allocation (min/avg/max) = 16.23 | 16.23 | 16.23 Mbytes
   Step          Temp          Press           CPU            Pxx            Pyy            Pzz            Pxy            Pxz            Pyz           KinEng         PotEng         TotEng         Volume           Lx             Ly             Lz          Atoms   
     10000   3823.7672      593980.48      0              592722.05      594042.04      595177.33      536.02831     -3577.6228      3638.4147      7927.4473      8691.5025      16618.95       142952.09      41.500517      41.500517      83.001034          16040 
     11000   3794.2883      597583.82      7.4403259      600088.37      597174.81      595488.27      3611.1013      2497.0642     -40.214812      7866.3316      8644.3062      16510.638      142811.15      41.486873      41.486873      82.973747          16040 
     12000   3816.3136      602821.2       14.868767      602411.99      603540.8       602510.81      62.339659     -327.51828      1054.4585      7911.9945      8734.6058      16646.6        142727.92      41.478812      41.478812      82.957624          16040 
     13000   3796.0165      601168.05      22.297343      599531.31      601964.26      602008.57     -2038.7384     -3470.9627      3093.7219      7869.9145      8681.2169      16551.131      142724.19      41.478452      41.478452      82.956903          16040 
     14000   3798.8968      591870.48      29.726706      590942.06      592583.83      592085.56      2456.5368     -1326.5428     -872.09082      7875.8861      8608.3811      16484.267      143056.42      41.510611      41.510611      83.021221          16040 
     15000   3846.7509      600456.63      37.16685       602195.85      598941.52      600232.53     -3049.0443      765.28102      2684.9983      7975.0973      8686.4503      16661.548      142857.86      41.491397      41.491397      82.982793          16040 
     16000   3766.4368      604207.61      44.59501       603374.69      603700.16      605547.98     -855.20673      454.09358      423.84472      7808.5899      8725.3987      16533.989      142592.74      41.465713      41.465713      82.931426          16040 
     17000   3809.3912      599093.51      52.026772      599324.17      597543.74      600412.61      365.44591      703.23908     -1552.5455      7897.643       8553.1951      16450.838      142785.48      41.484387      41.484387      82.968775          16040 
     18000   3789.6377      599429.73      59.453056      597791.97      600232.32      600264.91      2694.1471     -3933.4223     -2774.7605      7856.6901      8538.3166      16395.007      142758.22      41.481747      41.481747      82.963495          16040 
     19000   3775.3067      597174.27      66.882274      595732.5       598467.94      597322.37     -3391.841       2490.9296     -1122.9512      7826.9789      8705.2852      16532.264      142857.65      41.491376      41.491376      82.982751          16040 
     20000   3793.4932      605308.23      74.308261      606376.89      605582.85      603964.93      1751.736       185.17829      321.6683       7864.6831      8687.857       16552.54       142500.72      41.456792      41.456792      82.913584          16040 
     21000   3843.4256      599335.01      81.743189      598896.96      601504.77      597603.29     -1917.4177     -615.75682      207.63153      7968.2033      8605.7977      16574.001      142815.65      41.487309      41.487309      82.974618          16040 
     22000   3783.7173      594416.48      89.181133      596539.98      593518.24      593191.21     -4496.9194      2617.9828     -1102.6921      7844.4157      8515.0128      16359.429      142950.78      41.50039       41.50039       83.000779          16040 
     23000   3800.9015      598240.77      96.608806      595863.25      599341.84      599517.21      1433.4131     -1969.309       2758.3109      7880.0421      8656.0651      16536.107      142858.68      41.491475      41.491475      82.982951          16040 
     24000   3799.9256      604821.75      104.03802      603886.34      604850.63      605728.29     -1314.9841     -2544.4578      1063.2581      7878.0188      8626.3705      16504.389      142640.4       41.470333      41.470333      82.940666          16040 
     25000   3849.4015      599866.32      111.46513      600109.26      600681.48      598808.24     -1559.7209     -1863.3116     -1495.5006      7980.5926      8546.4081      16527.001      142757.28      41.481656      41.481656      82.963312          16040 
     26000   3781.1754      594638.23      118.89372      595449.36      593767.1       594698.22      3157.3689     -2482.4827     -5200.9571      7839.146       8542.059       16381.205      142941.88      41.499529      41.499529      82.999058          16040 
     27000   3790.5809      602393.75      126.31919      605080.51      599301.2       602799.53     -153.70944     -945.76711      802.62874      7858.6454      8617.5559      16476.201      142752.34      41.481177      41.481177      82.962355          16040 
     28000   3804.7883      605900.46      133.74599      607255.35      602861.02      607585.02      1300.5327      1632.4993     -1853.5428      7888.1004      8730.5581      16618.658      142572.14      41.463716      41.463716      82.927432          16040 
     29000   3806.5199      602271.83      141.17498      601316.45      605037.28      600461.76     -1692.2969     -4847.1363      473.43182      7891.6903      8544.9131      16436.603      142682.68      41.47443       41.47443       82.94886           16040 
     30000   3805.1223      595243.61      148.60524      596209.78      595836.76      593684.3      -1842.3758      524.00854      5516.6828      7888.7928      8509.4803      16398.273      142931.31      41.498506      41.498506      82.997012          16040 
     31000   3793.0626      602356.41      156.03335      601490.04      600987.56      604591.63     -5417.871       1002.2455     -8.2482414      7863.7906      8654.8907      16518.681      142650.33      41.471295      41.471295      82.94259           16040 
     32000   3773.9553      602888.26      163.46288      600138.94      606695.58      601830.27      1305.8425     -618.61961     -1986.8048      7824.1772      8661.3265      16485.504      142592.43      41.465683      41.465683      82.931367          16040 
     33000   3781.1892      598042.92      170.88637      597560.86      599303.37      597264.55     -677.00562      588.52472      3727.4271      7839.1746      8568.4329      16407.607      142819.61      41.487692      41.487692      82.975385          16040 
     34000   3776.994       592701.33      178.31427      592886.29      592926.75      592290.96      1105.5766      1239.2189      1341.6636      7830.477       8457.5389      16288.016      143052.58      41.510239      41.510239      83.020479          16040 
     35000   3792.0965      601703.72      185.74143      601836.48      602650.54      600624.13     -682.9774       1747.1847      1817.5564      7861.7875      8573.5681      16435.356      142707.71      41.476854      41.476854      82.953709          16040 
     36000   3800.1371      603455.48      193.16811      603022.77      601576.57      605767.11      2297.9896      219.31855     -874.1789       7878.4573      8674.8364      16553.294      142627.68      41.4691        41.4691        82.9382            16040 
     37000   3816.8175      595944.06      200.59561      597590.29      597228.65      593013.23     -3650.8445     -665.48766     -1544.3031      7913.0392      8547.4143      16460.454      142870.53      41.492623      41.492623      82.985245          16040 
     38000   3750.6924      594274.02      208.02016      593901.25      593024         595896.82     -93.80454      -3001.9933      1394.4998      7775.9484      8450.8665      16226.815      142905.08      41.495967      41.495967      82.991934          16040 
     39000   3798.0448      602547.88      215.44564      605336.44      601739.48      600567.7      -2291.2737      1040.2003     -1791.3952      7874.1197      8507.8262      16381.946      142734.67      41.479466      41.479466      82.958933          16040 
     40000   3800.4177      605091.22      222.873        606104.45      604495.85      604673.37     -3568.4111      679.52011      3080.9722      7879.0391      8620.6319      16499.671      142592.97      41.465736      41.465736      82.931471          16040 
     41000   3757.9743      602020.68      230.30249      601760.61      603347.57      600953.87      383.28996     -4532.4647     -3530.1295      7791.0453      8515.7127      16306.758      142710.22      41.477098      41.477098      82.954195          16040 
     42000   3783.1067      597595.73      237.7304       594708.87      599186.2       598892.13      1500.0749      1347.6895      1089.4646      7843.1499      8583.867       16427.017      142872.26      41.49279       41.49279       82.98558           16040 
     43000   3783.0379      597072.41      245.15609      593425.05      598732.23      599059.96      839.76513     -2128.0039      349.52652      7843.0073      8536.7512      16379.758      142776.28      41.483496      41.483496      82.966993          16040 
     44000   3829.4313      606674.48      252.5843       604962.19      608874.25      606186.99      647.90453      915.14313      1010.9883      7939.1903      8681.0952      16620.285      142524.51      41.459099      41.459099      82.918197          16040 
     45000   3829.6156      600934.67      260.01449      601051.49      600738.89      601013.63     -427.8691       1862.9377     -3.0592935      7939.5723      8572.5929      16512.165      142738.62      41.479849      41.479849      82.959699          16040 
     46000   3756.8011      599042.57      267.44211      599700.74      600286.12      597140.85      1894.4286     -800.89013     -531.7211       7788.613       8516.2312      16304.844      142774.42      41.483317      41.483317      82.966634          16040 
     47000   3810.5656      598548.34      274.86844      598537.8       599068.37      598038.84      2340.2324      3018.9867     -3418.9355      7900.0778      8544.6438      16444.722      142816.92      41.487432      41.487432      82.974864          16040 
     48000   3795.6577      604242.1       282.29845      603374.33      604301.35      605050.63     -660.20487     -2298.0707     -573.67778      7869.1707      8643.4892      16512.66       142552.57      41.461819      41.461819      82.923638          16040 
     49000   3801.6765      607842.06      289.72565      607120.03      606898.6       609507.54     -873.77717      1249.9046      1266.0055      7881.6489      8591.562       16473.211      142464.11      41.453241      41.453241      82.906482          16040 
     50000   3847.9713      596616.33      297.15296      594974.74      595414.15      599460.09      1325.0767      1654.9256      1339.7994      7977.6275      8441.601       16419.228      142920.55      41.497464      41.497464      82.994928          16040 
     51000   3785.7252      597615.3       304.58208      595427.53      598613.04      598805.33      2704.5582     -3712.3372      3689.9371      7848.5785      8557.9874      16406.566      142861.35      41.491734      41.491734      82.983469          16040 
     52000   3749.5279      604699.69      312.01054      604234.4       607667.44      602197.22      2048.6655      1558.7807     -3137.499       7773.5343      8666.2616      16439.796      142555.7       41.462123      41.462123      82.924246          16040 
     53000   3830.2309      602236.98      319.44047      601522.26      602996.37      602192.32     -1936.2256      1444.2657     -184.19653      7940.848       8518.6828      16459.531      142697.47      41.475862      41.475862      82.951724          16040 
     54000   3783.4152      597544.71      326.86976      596887.82      598372.2       597374.12     -2119.0229     -2021.694      -2453.2521      7843.7896      8507.3185      16351.108      142857.68      41.491379      41.491379      82.982758          16040 
     55000   3837.7711      597420.65      334.29987      596565.12      597145.47      598551.35     -3921.8564      3814.9554     -4297.5594      7956.4804      8553.3217      16509.802      142895.76      41.495065      41.495065      82.99013           16040 
     56000   3807.0487      604471.19      341.72732      603888.49      605029.45      604495.62     -3044.8394      3602.1915     -3695.8874      7892.7866      8541.2775      16434.064      142612.33      41.467612      41.467612      82.935223          16040 
     57000   3815.6563      603882.27      349.15838      606143.73      603007.43      602495.66      39.828263      2454.6224      1286.9965      7910.632       8600.2977      16510.93       142595.59      41.465989      41.465989      82.931979          16040 
     58000   3781.9013      593519.49      356.58849      595194.93      593216.06      592147.49      1486.2715      1016.6019      732.48811      7840.6509      8445.2906      16285.942      142924.73      41.497869      41.497869      82.995738          16040 
     59000   3823.451       597592.87      364.01524      595972.08      599348.8       597457.72     -1356.0525      2554.8201     -39.224073      7926.7918      8511.8196      16438.611      142860.94      41.491695      41.491695      82.983389          16040 
     60000   3808.547       606896.03      371.44371      609117.87      606601.12      604969.09      6474.9567      2070.1186      1715.8549      7895.8928      8604.5934      16500.486      142552.34      41.461797      41.461797      82.923594          16040 
     61000   3774.8396      599350.81      378.87329      598862.86      602363.78      596825.78     -1754.2498     -2536.085       2228.9518      7826.0106      8489.8911      16315.902      142696.12      41.475732      41.475732      82.951463          16040 
     62000   3786.7152      598499.81      386.30111      597687.75      597394.94      600416.75     -2082.2202     -1098.1503      429.03474      7850.631       8558.6691      16409.3        142903.89      41.495852      41.495852      82.991705          16040 
     63000   3769.8634      595091.41      393.73657      595114.07      596961.03      593199.13     -5958.6722     -433.0253      -379.19097      7815.6938      8474.41        16290.104      142910.04      41.496448      41.496448      82.992895          16040 
     64000   3760.9399      600373.12      401.16395      599623.33      602046.57      599449.45     -1540.4017      1698.8109      744.40827      7797.1936      8460.903       16258.097      142743.38      41.48031       41.48031       82.960621          16040 
     65000   3817.5094      601207.38      408.59096      600775.59      601075.77      601770.78     -498.80362     -1814.8473      594.16158      7914.4738      8550.687       16465.161      142752.22      41.481166      41.481166      82.962332          16040 
     66000   3783.8046      601841.69      416.0159       601509.49      603646.97      600368.62     -2545.4891     -2453.4343     -3357.4182      7844.5967      8513.2438      16357.841      142644.71      41.47075       41.47075       82.9415            16040 
     67000   3796.5565      597600.9       423.44249      596738.03      600121.66      595943.02     -711.19757      784.81199      851.60837      7871.0341      8420.9604      16291.995      142843.76      41.490031      41.490031      82.980062          16040 
     68000   3819.2271      589599.12      430.87022      590701         590445.03      587651.32      2589.9478     -4398.2232     -828.47007      7918.0349      8439.3125      16357.347      143184.22      41.522968      41.522968      83.045937          16040 
     69000   3762.7963      600040.55      438.29921      599439.17      602276.7       598405.77      593.02962      165.76724     -1082.5206      7801.0424      8591.8454      16392.888      142734.68      41.479467      41.479467      82.958935          16040 
     70000   3808.5676      601030.71      445.72943      599764.83      602842.21      600485.09     -2316.7666      3661.4362     -2619.7391      7895.9355      8594.8311      16490.767      142731.21      41.479131      41.479131      82.958262          16040 
     71000   3810.631       599778.19      453.15936      598252.2       598295.52      602786.85     -796.94441     -1801.2211     -735.04533      7900.2135      8519.8274      16420.041      142811.2       41.486878      41.486878      82.973757          16040 
     72000   3798.8798      600628.79      460.58806      601214.69      601658.26      599013.42     -607.43655      350.86541      329.94589      7875.8507      8476.5901      16352.441      142689.32      41.475073      41.475073      82.950145          16040 
     73000   3816.0885      599280.15      468.01765      599525.32      600446.76      597868.36      1835.8079      1250.0915      31.639551      7911.5279      8517.1551      16428.683      142763.22      41.482232      41.482232      82.964463          16040 
     74000   3778.1255      595556.13      475.44516      594302.03      596023.83      596342.52      2385.0633     -589.87372      3681.396       7832.823       8404.6023      16237.425      142872.57      41.49282       41.49282       82.98564           16040 
     75000   3811.303       594788.03      482.87265      595576.76      595983.34      592803.99     -4458.2716     -1688.4629      2183.8434      7901.6065      8351.8133      16253.42       143001.61      41.505308      41.505308      83.010617          16040 
     76000   3796.8663      604124.75      490.3008       605367.71      603460.54      603546        -2349.2195     -26.710187     -4028.8067      7871.6764      8571.8748      16443.551      142645.11      41.470789      41.470789      82.941578          16040 
     77000   3804.142       606981.39      497.72927      609100.25      608777.49      603066.43      3389.9835      1727.9096     -192.79676      7886.7603      8577.6882      16464.449      142521.08      41.458766      41.458766      82.917532          16040 
     78000   3815.7156      599025.76      505.1595       599116.11      600077.5       597883.67      441.26234      2691.1683      801.74341      7910.7548      8361.5147      16272.269      142722.08      41.478247      41.478247      82.956494          16040 
     79000   3798.677       596958.65      512.58747      596466.09      598424.53      595985.34      2234.7846      1099.3804      745.89242      7875.4303      8439.4346      16314.865      142895.34      41.495025      41.495025      82.990049          16040 
     80000   3788.8735      598312.66      520.0162       598434.08      598225.12      598278.8      -277.92143      4463.9481     -4153.1209      7855.1057      8500.9069      16356.013      142828.9       41.488592      41.488592      82.977184          16040 
     81000   3806.9055      604776.73      527.44547      604426.42      603391.59      606512.17      1569.2097      4745.1967     -1200.3276      7892.4898      8557.6534      16450.143      142584.51      41.464915      41.464915      82.92983           16040 
     82000   3780.2792      602434.09      534.87519      603790.89      600913.68      602597.69      539.85395      3530.1574      1205.3747      7837.2878      8447.1493      16284.437      142633.97      41.469709      41.469709      82.939418          16040 
     83000   3744.9371      596852.54      542.30403      596636.03      595599.59      598322.01      4266.4812      1960.4704      133.44977      7764.0166      8470.1868      16234.203      142901.82      41.495652      41.495652      82.991303          16040 
     84000   3811.6622      598805.97      549.73087      596272.86      599960.27      600184.79      1109.2203     -964.13337      4096.731       7902.3513      8501.7785      16404.13       142829.82      41.488681      41.488681      82.977362          16040 
     85000   3852.3345      603529.33      557.15689      603046.3       603005.62      604536.06      437.1155      -1697.0141     -2398.9498      7986.6732      8567.8138      16554.487      142655.21      41.471768      41.471768      82.943536          16040 
     86000   3786.2571      599641.38      564.58414      598986.55      599465.75      600471.84      2363.3336     -2930.2171     -524.54935      7849.6814      8416.6368      16266.318      142690.75      41.475211      41.475211      82.950423          16040 
     87000   3789.088       596305.33      572.01455      594961.97      595872.97      598081.06     -3638.8097      1702.2478     -569.42823      7855.5503      8522.7354      16378.286      142941.27      41.49947       41.49947       82.99894           16040 
     88000   3770.6321      597171.91      579.44191      597117.91      598196.65      596201.17      4375.6595     -2037.4854     -2419.8391      7817.2876      8366.387       16183.675      142863.91      41.491982      41.491982      82.983964          16040 
     89000   3831.9039      607742.82      586.86911      609522.51      605798.39      607907.56     -1155.4313      3713.7037      5069.2167      7944.3164      8512.9573      16457.274      142485.44      41.45531       41.45531       82.910619          16040 
     90000   3774.6114      603009.4       594.30014      605034.68      603355.31      600638.21     -762.30603     -235.73379      410.26192      7825.5375      8628.1646      16453.702      142609.11      41.4673        41.4673        82.9346            16040 
     91000   3777.4231      596746.74      601.72668      597706.5       598452.88      594080.84     -741.78639      4302.0182     -5352.1566      7831.3667      8483.9937      16315.36       142883.32      41.493861      41.493861      82.987722          16040 
     92000   3788.0348      596396.77      609.15272      598085.77      595046.67      596057.87      2637.438      -3018.107      -408.44354      7853.3668      8457.5812      16310.948      142832.92      41.488981      41.488981      82.977963          16040 
     93000   3780.8029      601181.73      616.57739      599124.24      600249.84      604171.11      1500.7488      366.12152      1382.4603      7838.3736      8477.9978      16316.371      142632.27      41.469544      41.469544      82.939088          16040 
     94000   3817.8441      600720.03      624.00568      598477.11      600761.3       602921.68     -812.67489     -2467.4055      2034.1406      7915.1677      8539.0526      16454.22       142776.84      41.483551      41.483551      82.967103          16040 
     95000   3760.1492      595609.63      631.43353      596344.32      594533.95      595950.62      1375.3385     -561.21841      5416.8391      7795.5543      8451.9032      16247.457      142958.14      41.501102      41.501102      83.002204          16040 
     96000   3823.8209      597287.78      638.86158      596893.69      596116.61      598853.04     -3526.1219     -982.15045      1395.3462      7927.5588      8463.6752      16391.234      142825.26      41.48824       41.48824       82.976479          16040 
     97000   3762.4171      608746.33      646.28882      607472.54      612896.9       605869.54      1853.3692     -3686.5796      437.54379      7800.2562      8610.6161      16410.872      142419.75      41.448938      41.448938      82.897875          16040 
     98000   3793.8341      602859.97      653.71643      600947.12      603310.36      604322.44      3438.2528      3351.5108      720.58956      7865.3899      8659.7929      16525.183      142734.12      41.479413      41.479413      82.958826          16040 
     99000   3805.9808      597739.87      661.1455       597590.27      598424.81      597204.54      703.29544     -3346.6425     -532.83304      7890.5726      8420.2199      16310.792      142803.42      41.486125      41.486125      82.972249          16040 
    100000   3817.8715      599993.22      668.5806       600799.35      599897.31      599283.01     -3051.8393      2801.2807     -330.71567      7915.2244      8495.5547      16410.779      142789.46      41.484773      41.484773      82.969546          16040 
    101000   3801.3238      606241.93      676.00834      606605.9       605280.39      606839.49     -1697.1976     -18.484297     -2923.9599      7880.9176      8561.7067      16442.624      142523.75      41.459024      41.459024      82.918049          16040 
    102000   3807.7369      597798.89      683.44551      598453.86      597407.44      597535.38      2780.3104      3022.0883      1332.9914      7894.2133      8468.1834      16362.397      142950.58      41.50037       41.50037       83.00074           16040 
    103000   3756.5783      595808.1       690.87383      597270.4       596151.67      594002.22      434.7924       1350.6537      995.89766      7788.1511      8449.6328      16237.784      142910.06      41.496449      41.496449      82.992898          16040 
    104000   3799.3789      600769.8       698.30561      600239.26      603972.61      598097.52     -3220.1403     -2259.0815      3078.6162      7876.8856      8551.1817      16428.067      142748.89      41.480844      41.480844      82.961688          16040 
    105000   3830.9422      604213.55      705.73924      601872.36      604289.95      606478.35     -2773.0681     -1561.5574      780.85714      7942.3227      8417.7275      16360.05       142620.93      41.468446      41.468446      82.936891          16040 
    106000   3828.1251      594046.76      713.16853      595268.33      594210.42      592661.53      2833.3835     -4375.7325      2347.4967      7936.4821      8372.3868      16308.869      143027.58      41.50782       41.50782       83.015641          16040 
    107000   3774.5344      599417.54      720.59713      600531.32      597182.73      600538.58      642.53133      2615.9803     -1498.2482      7825.3779      8475.9762      16301.354      142860.25      41.491628      41.491628      82.983255          16040 
    108000   3812.1947      599947.66      728.03061      600695.31      600452.46      598695.22      3517.1307     -2212.9152     -2319.8485      7903.4552      8568.9024      16472.358      142763.82      41.482289      41.482289      82.964579          16040 
    109000   3800.858       601197.48      735.45691      599181.81      600028.3       604382.35      100.56172     -2591.1915     -1675.1087      7879.952       8465.1509      16345.103      142646.86      41.470959      41.470959      82.941918          16040 
    110000   3782.678       597437.44      742.88386      595693.14      596741.47      599877.71     -1438.1605      1248.0391     -403.01498      7842.2612      8422.0079      16264.269      142865.58      41.492144      41.492144      82.984287          16040 
    111000   3760.4019      594528.36      750.31063      593686.2       595370.94      594527.94      744.60855      1982.613      -1711.851       7796.0782      8431.5915      16227.67       142886.32      41.494151      41.494151      82.988302          16040 
    112000   3796.432       604051.74      757.73737      604476.42      602478.74      605200.05      2441.3892      4108.0064      4096.722       7870.776       8524.6576      16395.434      142601         41.466513      41.466513      82.933027          16040 
    113000   3788.3443      604236.7       765.16551      603765.62      605128.33      603816.16     -1064.5233      816.46865     -7918.3259      7854.0086      8460.5611      16314.57       142639.21      41.470218      41.470218      82.940435          16040 
    114000   3765.4088      601786.01      772.5939       603784.71      600014.63      601558.7       2096.8708      4927.7613     -1886.7603      7806.4586      8441.2661      16247.725      142677.29      41.473907      41.473907      82.947815          16040 
    115000   3824.4964      599526.11      780.02368      599818.62      598979.8       599779.9      -484.22958     -1639.7312     -1371.0083      7928.9592      8478.2365      16407.196      142820.52      41.487781      41.487781      82.975561          16040 
    116000   3784.0595      592598.93      787.44938      593405.17      592638.88      591752.75      620.31305      200.89097     -3707.3424      7845.1252      8398.787       16243.912      143005.62      41.505696      41.505696      83.011393          16040 
    117000   3767.3282      601148.47      794.87696      601186.72      600243.58      602015.11      1815.8583     -3404.9086     -1040.3319      7810.4379      8520.4138      16330.852      142725.33      41.478562      41.478562      82.957123          16040 
    118000   3789.9115      604795.28      802.31237      605393.34      605586.08      603406.41     -676.70755     -838.98101     -5288.0192      7857.2576      8576.0417      16433.299      142583.41      41.464808      41.464808      82.929617          16040 
    119000   3812.3524      599223.24      809.74004      598484.28      601467.64      597717.81      1180.3013     -1926.8318     -2046.964       7903.7822      8484.4123      16388.195      142787.07      41.484542      41.484542      82.969083          16040 
    120000   3822.2251      600982.03      817.16764      601808.91      601107.01      600030.16      1594.1759     -177.29987     -1139.5302      7924.2503      8380.9171      16305.167      142786.8       41.484516      41.484516      82.969032          16040 
    121000   3778.3821      601198.42      824.59547      600667.8       601450.18      601477.27     -139.26351      400.74454     -1356.4006      7833.3549      8516.5212      16349.876      142757.73      41.4817        41.4817        82.9634            16040 
    122000   3791.1092      600520.42      832.02091      599929.73      601577.3       600054.22     -4716.7115      2736.8594     -109.9725       7859.7407      8592.5738      16452.314      142733.96      41.479397      41.479397      82.958795          16040 
    123000   3764.944       602414.73      839.45067      604715.78      600892.13      601636.28     -2157.781      -2406.5976     -3552.5295      7805.4949      8516.5107      16322.006      142629.74      41.4693        41.4693        82.938599          16040 
    124000   3795.7081      590506.32      846.87834      590005.07      591704.68      589809.21     -3405.274       250.2638       299.32014      7869.2752      8347.7738      16217.049      143155.89      41.520229      41.520229      83.040458          16040 
    125000   3785.7265      597692.96      854.30471      598540.06      596965.13      597573.68      2324.8696     -3374.3435      4754.7857      7848.5814      8477.069       16325.65       142843.19      41.489976      41.489976      82.979952          16040 
    126000   3775.8867      600091.38      861.73414      599821.11      600149.63      600303.4       4657.3369      2772.678       496.52555      7828.1814      8575.7947      16403.976      142720.19      41.478064      41.478064      82.956128          16040 
    127000   3798.6766      600350.64      869.1583       600853.02      600432.28      599766.61      1125.8524      488.41228     -3183.2385      7875.4295      8428.125       16303.555      142774.18      41.483293      41.483293      82.966587          16040 
    128000   3766.1411      593355.05      876.58545      592925.7       592028.24      595111.21     -543.93353     -3193.9003      1462.0081      7807.9767      8467.077       16275.054      142991.57      41.504337      41.504337      83.008673          16040 
    129000   3783.5396      602541.69      884.01587      600790.1       601386.48      605448.48     -776.65141     -2846.2876      3539.8744      7844.0474      8596.715       16440.762      142711.68      41.47724       41.47724       82.954479          16040 
    130000   3822.8059      602562.54      891.43827      604673.98      602447.58      600566.07     -2165.5031      36.194672     -141.18183      7925.4545      8512.9379      16438.392      142703.54      41.47645       41.47645       82.952901          16040 
    131000   3799.8272      594064.57      898.8618       593718.24      595008.37      593467.09      3126.7595      1434.231      -3782.0293      7877.8149      8376.5203      16254.335      142893.27      41.494824      41.494824      82.989648          16040 
    132000   3787.6111      598619.68      906.28836      598839         596587.5       600432.53     -673.33969     -223.46515     -1396.9195      7852.4884      8502.3277      16354.816      142786.44      41.484481      41.484481      82.968962          16040 
    133000   3763.6572      606231.04      913.71695      607962.73      605602.95      605127.45      485.87321      2437.102       3093.8686      7802.8271      8505.7492      16308.576      142548.98      41.461471      41.461471      82.922941          16040 
    134000   3810.0144      601347.98      921.14609      602132.81      601708.39      600202.75      377.62037      811.15745     -1536.2402      7898.9352      8486.3798      16385.315      142774.14      41.48329       41.48329       82.966579          16040 
    135000   3835.7773      597844.71      928.57296      597389.53      599209.53      596935.06     -54.022251      5557.3991     -548.14335      7952.3469      8389.7811      16342.128      142841.21      41.489784      41.489784      82.979568          16040 
    136000   3746.6455      594488.09      935.9978       594379.83      595835.75      593248.69     -1417.7112     -1265.6517      1905.7446      7767.5585      8452.7108      16220.269      142899.02      41.495381      41.495381      82.990762          16040 
    137000   3829.2899      605179.9       943.42585      602422.46      605539.82      607577.44      536.95401     -1397.926       3433.3241      7938.8971      8595.0516      16533.949      142508.1       41.457507      41.457507      82.915014          16040 
    138000   3804.3846      602282.45      950.85511      604420.13      602857.58      599569.63     -3779.7053     -3050.9499      1119.3528      7887.2634      8531.9775      16419.241      142638.51      41.470149      41.470149      82.940298          16040 
    139000   3762.343       600462.61      958.27873      601043.52      599549.24      600795.08      3120.0437      3862.3848      767.3249       7800.1025      8430.658       16230.761      142717.44      41.477797      41.477797      82.955594          16040 
    140000   3780.3049      595851.45      965.70396      594711.59      596928.57      595914.18      1689.4719      3185.1722      2590.3466      7837.3411      8534.4247      16371.766      142905.35      41.495993      41.495993      82.991986          16040 
    141000   3789.3967      597129.56      973.13041      597940.23      595815.55      597632.91      320.02212     -1930.6812      1571.7721      7856.1903      8432.3935      16288.584      142927.29      41.498116      41.498116      82.996233          16040 
    142000   3786.3572      603669.27      980.55697      601670.82      605985.45      603351.55      278.23531      4415.3235      446.68151      7849.8889      8589.5319      16439.421      142629.57      41.469283      41.469283      82.938566          16040 
    143000   3788.8173      605696.67      987.98479      604933.42      607805.35      604351.24     -791.22212     -3306.7984     -1126.8794      7854.9892      8454.8386      16309.828      142500.92      41.456811      41.456811      82.913622          16040 
    144000   3760.3074      596676.15      995.41331      592701.65      597832.93      599493.87     -1094.2371     -2394.7386     -4353.3857      7795.8823      8554.2133      16350.096      142860.63      41.491665      41.491665      82.983329          16040 
    145000   3797.9509      593323.19      1002.8413      592493.04      593617.58      593858.94     -1396.2022      502.45186      2016.8691      7873.925       8430.6781      16304.603      142969.17      41.50217       41.50217       83.004339          16040 
    146000   3785.2513      602389.5       1010.2696      602903.82      602788.15      601476.51     -32.570741      1502.8499     -1084.0383      7847.5961      8454.7791      16302.375      142667.58      41.472966      41.472966      82.945933          16040 
    147000   3812.5821      601790.42      1017.6967      602735.31      601007.76      601628.18     -852.73902     -450.19239      5097.1264      7904.2585      8505.1378      16409.396      142702.12      41.476313      41.476313      82.952626          16040 
    148000   3809.1151      601638.26      1025.1272      601854.01      599189.2       603871.59      355.83308      2465.5334     -3085.6559      7897.0706      8449.5395      16346.61       142705.07      41.476599      41.476599      82.953198          16040 
    149000   3828.0289      595458.93      1032.5546      594674.36      594846.87      596855.57     -4973.1909     -1662.9931      1619.3888      7936.2827      8386.8382      16323.121      142931.39      41.498514      41.498514      82.997028          16040 
    150000   3785.3445      602501.97      1039.9819      601725.43      605054         600726.47      413.91342      1429.5756      2099.208       7847.7894      8454.7733      16302.563      142626.57      41.468992      41.468992      82.937984          16040 
    151000   3817.3603      606296.78      1047.4101      605837.62      608368.58      604684.15      2750.1526      506.34905      3347.3031      7914.1647      8525.6684      16439.833      142454.41      41.4523        41.4523        82.904601          16040 
    152000   3788.9289      597997.28      1054.8369      597965.92      598478.27      597547.66      2626.1195      703.70368     -1226.5983      7855.2206      8453.1566      16308.377      142861.6       41.491758      41.491758      82.983516          16040 
    153000   3741.6842      597559.19      1062.2655      600267.41      595253.55      597156.62      1842.9798     -1946.1429      2025.5914      7757.2727      8404.0747      16161.347      142849.36      41.490573      41.490573      82.981146          16040 
    154000   3783.1673      599702.34      1069.6939      600653.39      599464.71      598988.91      1356.2437     -1386.1345     -2393.0866      7843.2756      8396.5475      16239.823      142754.15      41.481354      41.481354      82.962707          16040 
    155000   3806.2872      604544.46      1077.1213      604395.18      604400.8       604837.4      -1882.9245      3178.5341     -2913.8171      7891.2077      8520.6596      16411.867      142672.42      41.473436      41.473436      82.946871          16040 
    156000   3787.7773      597779.76      1084.5478      597802.4       597014.76      598522.11     -1599.7089      853.18634     -1871.0895      7852.8331      8388.0781      16240.911      142814.93      41.487239      41.487239      82.974478          16040 
    157000   3788.1157      594320.73      1091.9764      593038.91      592339.1       597584.19     -3975.5301      1370.7847     -620.89539      7853.5346      8342.5369      16196.072      143006.86      41.505816      41.505816      83.011633          16040 
    158000   3798.1531      600961.61      1099.4032      601978.46      599522.04      601384.34     -865.95796      1904.7403     -1998.8801      7874.3442      8473.1349      16347.479      142620.74      41.468427      41.468427      82.936854          16040 
    159000   3827.2536      606168.55      1106.832       605900.46      606730.31      605874.88     -5419.2767      954.60386     -2234.5636      7934.6754      8551.0761      16485.751      142576.1       41.4641        41.4641        82.928201          16040 
    160000   3792.4074      600908.48      1114.2607      600215.05      601918.22      600592.19     -2996.9125      599.08031     -1152.0771      7862.4322      8409.8097      16272.242      142723.49      41.478384      41.478384      82.956767          16040 
    161000   3765.9905      596293.88      1121.6921      594870.7       594860.67      599150.26     -4373.534      -3912.9756      195.89544      7807.6647      8328.4665      16136.131      142842.35      41.489894      41.489894      82.979789          16040 
    162000   3836.1544      602209.54      1129.1183      603022.25      603159.72      600446.64     -2457.0762     -3963.9265      1928.6333      7953.1286      8437.3168      16390.445      142718.23      41.477874      41.477874      82.955748          16040 
    163000   3767.4547      597732.29      1136.5455      597343.58      597787.78      598065.5      -600.9148       503.67698     -6856.961       7810.7001      8474.038       16284.738      142836.09      41.489288      41.489288      82.978576          16040 
    164000   3794.3288      598088.52      1143.9723      598602.1       598830.64      596832.81      2520.6023     -1794.2961      834.68262      7866.4157      8388.6632      16255.079      142826.04      41.488315      41.488315      82.976631          16040 
    165000   3822.4398      604636.66      1151.3999      606568.09      604217.01      603124.89     -915.0202       242.05958      1323.007       7924.6955      8438.1756      16362.871      142626.21      41.468957      41.468957      82.937914          16040 
    166000   3787.31        601856.29      1158.8242      603074.89      600220.02      602273.94      1777.878      -4377.8786     -1928.5058      7851.8643      8468.3583      16320.223      142693.08      41.475437      41.475437      82.950873          16040 
    167000   3814.9235      595135.95      1166.2511      595253.06      594834.4       595320.4       793.11024      959.45088     -767.29833      7909.1127      8409.3339      16318.447      142958.35      41.501122      41.501122      83.002245          16040 
    168000   3794.2016      599635.35      1173.6769      600706.86      599253.45      598945.75     -1662.1471     -4470.07       -1479.8951      7866.1519      8368.9885      16235.14       142684.11      41.474568      41.474568      82.949136          16040 
    169000   3832.3728      603527.09      1181.1039      604081.4       603942.86      602557.02      1402.4324     -875.77005      947.97343      7945.2886      8448.9417      16394.23       142653.88      41.471639      41.471639      82.943278          16040 
    170000   3833.3375      601044.61      1188.5286      602034.71      600430.02      600669.11     -2747.4908      2289.9657      2818.6178      7947.2887      8385.2268      16332.516      142738.88      41.479874      41.479874      82.959748          16040 
    171000   3777.982       600249.62      1195.9572      600375.46      600728.07      599645.33      3093.9851      121.63108      5388.1809      7832.5254      8547.2813      16379.807      142750.77      41.481026      41.481026      82.962052          16040 
    172000   3784.6604      595737.46      1203.3843      593950.17      598094.55      595167.67      2486.3011     -1271.7152      3065.5754      7846.3711      8359.7692      16206.14       142914.23      41.496852      41.496852      82.993705          16040 
    173000   3789.5758      594345.1       1210.8094      595367.39      592723.86      594944.07     -501.26584      1045.4539     -2196.7726      7856.5617      8371.5986      16228.16       142936.34      41.498993      41.498993      82.997985          16040 
    174000   3805.3894      606857.98      1218.2353      608286.34      605875.88      606411.72     -1910.8691      2677.1364     -3432.0229      7889.3465      8441.4783      16330.825      142520.07      41.458667      41.458667      82.917335          16040 
    175000   3801.5305      601385.92      1225.6598      598942.6       601960.06      603255.09     -2204.6771      1485.7874     -1952.2249      7881.3462      8497.0236      16378.37       142740.43      41.480025      41.480025      82.960049          16040 
    176000   3796.4788      598950.79      1233.0859      598117.45      598588.71      600146.21     -1955.3166      405.32324     -2597.8025      7870.873       8393.1031      16263.976      142810.92      41.486851      41.486851      82.973702          16040 
    177000   3743.1804      599274.69      1240.5118      598793.56      599801.99      599228.53      3739.3505      1185.5634     -375.61366      7760.3745      8395.22        16155.595      142687.86      41.474931      41.474931      82.949863          16040 
    178000   3833.2063      599306.8       1247.9382      596837.54      598024.49      603058.38     -1794.2236     -1474.817       1077.2551      7947.0165      8352.4472      16299.464      142819.89      41.48772       41.48772       82.97544           16040 
    179000   3757.6464      602978.09      1255.3636      602275.73      600368.97      606289.58      338.43299      3575.7603     -1696.5921      7790.3656      8395.0291      16185.395      142710.68      41.477142      41.477142      82.954284          16040 
    180000   3781.1553      595586.33      1262.7891      596904.26      594853.6       595001.12     -542.61475     -215.22015      3647.3799      7839.1044      8368.9547      16208.059      142886.79      41.494197      41.494197      82.988394          16040 
    181000   3839.7389      600337.37      1270.2158      600214.12      599351.88      601446.13      1834.7907     -1869.1767      2517.5953      7960.56        8461.4912      16422.051      142811.46      41.486903      41.486903      82.973807          16040 
    182000   3764.1214      605712.58      1277.6409      606521.63      605700.74      604915.36     -2246.4585      4458.3485     -2006.6805      7803.7896      8497.694       16301.484      142555.28      41.462082      41.462082      82.924164          16040 
    183000   3813.9552      602641.69      1285.0669      601608.49      602124.05      604192.51     -1481.2733     -936.36843     -4838.2567      7907.1052      8506.4651      16413.57       142682.96      41.474457      41.474457      82.948914          16040 
    184000   3737.4127      593875.44      1292.494       591863.62      596032.86      593729.85     -4562.5548     -311.05004      599.14416      7748.4169      8337.9484      16086.365      142924.57      41.497853      41.497853      82.995706          16040 
    185000   3797.9113      599730.59      1299.9207      598723.68      600728.67      599739.41      3834.5051      3016.8391      1283.5122      7873.8429      8449.5619      16323.405      142879.6       41.493501      41.493501      82.987002          16040 
    186000   3792.0751      601387.24      1307.3437      601058.4       601683.12      601420.19      877.33449     -4232.9915      906.77811      7861.7433      8470.2407      16331.984      142772.18      41.483099      41.483099      82.966199          16040 
    187000   3782.4519      599646.77      1314.7714      598993.64      599741.71      600204.97      247.34674      3054.4113     -856.45564      7841.7923      8313.2215      16155.014      142797.06      41.485509      41.485509      82.971017          16040 
    188000   3846.7784      598219.47      1322.1963      598842.9       597911.61      597903.89     -13.340292      2779.6035      5379.2911      7975.1544      8360.475       16335.629      142865.68      41.492153      41.492153      82.984306          16040 
    189000   3776.3997      608628.46      1329.6223      609174.94      609404.5       607305.94     -627.46274     -1712.4359      798.50789      7829.2449      8504.2173      16333.462      142486.77      41.455439      41.455439      82.910878          16040 
    190000   3788.5922      605975.9       1337.0485      604835.66      607696.75      605395.29     -2665.638      -3273.7652     -1926.7935      7854.5225      8511.5898      16366.112      142554.04      41.461961      41.461961      82.923923          16040 
    191000   3834.0194      592739.65      1344.4781      593530.85      592610.12      592077.99     -546.41463     -4546.6787     -2449.6275      7948.7022      8393.8055      16342.508      143065.16      41.511456      41.511456      83.022912          16040 
    192000   3813.5297      596410.17      1351.9033      595088.54      597022.27      597119.69      2247.7062      2976.9857      2631.041       7906.223       8387.7815      16294.005      142909.06      41.496352      41.496352      82.992705          16040 
    193000   3791.6916      599902.63      1359.329       598787.51      599470.01      601450.37      535.91224     -397.29899     -1822.0034      7860.9482      8448.4764      16309.425      142741.63      41.480141      41.480141      82.960282          16040 
    194000   3785.6836      604012.58      1366.7573      602772.26      605611.33      603654.14      904.08804      1038.5582      2182.0568      7848.4924      8510.5713      16359.064      142582.98      41.464767      41.464767      82.929534          16040 
    195000   3726.6477      597633.83      1374.1835      599190.07      597012.64      596698.79     -7048.5511     -3324.1424     -1018.719       7726.0989      8319.0379      16045.137      142801         41.48589       41.48589       82.971781          16040 
    196000   3851.3272      591501.69      1381.6087      588910.2       593704.06      591890.8      -351.02112     -1950.9293      1307.6391      7984.585       8274.8413      16259.426      143094.78      41.51432       41.51432       83.02864           16040 
    197000   3792.7099      603635.53      1389.034       605457.36      604591.59      600857.65     -2358.9361     -5031.1728      2619.4072      7863.0592      8479.6705      16342.73       142631.47      41.469467      41.469467      82.938934          16040 
    198000   3801.1665      605163.4       1396.4633      604977.09      606348.58      604164.51     -3132.9857      2402.7095     -636.36995      7880.5916      8360.1923      16240.784      142566.89      41.463207      41.463207      82.926414          16040 
    199000   3822.5676      597849.71      1403.8885      596935.19      597054.16      599559.79      4120.4637      1583.8247      3104.5326      7924.9605      8353.0671      16278.028      142828.67      41.48857       41.48857       82.97714           16040 
    200000   3791.5805      600984.43      1411.3223      601240.85      600337.4       601375.04     -1771.7632      2766.4581      305.07831      7860.7179      8290.998       16151.716      142703.12      41.476409      41.476409      82.952819          16040 
    201000   3786.2656      596622.71      1418.7455      599046.15      594493.51      596328.48     -1796.4024     -4015.9486      133.76029      7849.6989      8389.4907      16239.19       142855.35      41.491153      41.491153      82.982305          16040 
    202000   3803.5256      604705.7       1426.1703      605292.02      605164.28      603660.8       4375.9053     -6703.0507      4675.3454      7885.4825      8540.0475      16425.53       142633.02      41.469617      41.469617      82.939234          16040 
    203000   3778.1985      602036.24      1433.5927      602066.52      602348.56      601693.64     -1630.5695     -100.10411     -3664.307       7832.9742      8388.8957      16221.87       142641.69      41.470457      41.470457      82.940914          16040 
    204000   3815.4867      597507.82      1441.0165      598536.04      598451.75      595535.66     -2811.9342     -467.39739      2169.4187      7910.2803      8364.7868      16275.067      142929.07      41.498289      41.498289      82.996578          16040 
    205000   3785.5675      597246.63      1448.4413      599596.01      594793.5       597350.38     -2068.5703     -2069.602      -2135.7213      7848.2517      8281.7924      16130.044      142865.33      41.492119      41.492119      82.984239          16040 
    206000   3768.8847      603889.95      1455.8618      603684.54      603629.69      604355.61      1323.0914      2844.5528     -3913.7318      7813.6648      8446.7804      16260.445      142680.7       41.474238      41.474238      82.948476          16040 
    207000   3837.5991      600530.76      1463.2851      600638.91      600793.74      600159.64     -4.8227357     -2870.55        24.837411      7956.1237      8359.2027      16315.326      142776.97      41.483564      41.483564      82.967127          16040 
    208000   3779.8916      600948.33      1470.7085      602361.04      598587.71      601896.24      4720.8133     -17.052736     -3404.4581      7836.4844      8354.7496      16191.234      142783.35      41.484182      41.484182      82.968363          16040 
    209000   3816.9136      599227.46      1478.13        598548.45      599758.6       599375.34     -1983.3785     -4019.7489     -2410.5727      7913.2385      8403.1846      16316.423      142834.98      41.489181      41.489181      82.978361          16040 
    210000   3802.9962      605553.6       1485.5579      607615.91      605764.49      603280.4       2728.4678      1418.1148      10211.494      7884.385       8526.9473      16411.332      142574         41.463896      41.463896      82.927792          16040 
    211000   3805.1644      599279.42      1492.9833      600066.34      598514.66      599257.27      648.99611     -470.20057     -2502.8659      7888.8801      8350.6637      16239.544      142774.18      41.483294      41.483294      82.966587          16040 
    212000   3761.1793      594251.11      1500.4067      594354.89      596756.12      591642.32     -3994.1552     -1459.036       689.93741      7797.6899      8342.6686      16140.359      142950.25      41.500338      41.500338      83.000677          16040 
    213000   3785.9047      600751.07      1507.8344      599084.36      600133.19      603035.65     -2466.7562     -260.08821      1072.2669      7848.9507      8482.2997      16331.25       142808.85      41.48665       41.48665       82.973301          16040 
    214000   3760.6867      601450.43      1515.2624      598055.39      602751.87      603544.02     -213.28208     -717.67469     -766.80903      7796.6686      8439.4117      16236.08       142693.69      41.475496      41.475496      82.950993          16040 
    215000   3812.1155      600523.26      1522.6897      601521.85      599009.84      601038.1       313.92608      2945.7047      2270.2326      7903.2911      8488.3599      16391.651      142706.16      41.476705      41.476705      82.953409          16040 
    216000   3797.7776      595503.46      1530.1301      597515.96      593444.93      595549.51     -1143.4934     -4118.0087     -2279.3842      7873.5657      8292.0927      16165.658      142879.64      41.493505      41.493505      82.987009          16040 
    217000   3796.4965      593786.19      1537.558       593845.41      591798.79      595714.39      1949.2154      2725.2842     -2177.0329      7870.9097      8398.4311      16269.341      142987.38      41.503932      41.503932      83.007863          16040 
    218000   3753.4794      603890.83      1544.9854      602836.75      604145.77      604689.96     -816.32604      1000.698      -4727.1388      7781.7265      8569.5336      16351.26       142611.15      41.467498      41.467498      82.934996          16040 
    219000   3804.0532      603339.54      1552.4105      603314.48      603879.52      602824.62      1317.5558     -1908.556       1415.9628      7886.5762      8316.5074      16203.084      142658.38      41.472075      41.472075      82.94415           16040 
    220000   3802.0835      597169.22      1559.8355      596289.52      595538.36      599679.8      -2194.1806      3560.7896     -621.79312      7882.4927      8368.67        16251.163      142898.56      41.495336      41.495336      82.990671          16040 
    221000   3818.8503      597403.58      1567.2626      599565.27      596923.73      595721.76      4135.6714      395.0493      -1082.1218      7917.2537      8388.6792      16305.933      142815.98      41.487341      41.487341      82.974682          16040 
    222000   3775.5232      602462.53      1574.6873      602772.02      604600.59      600014.97     -1889.6925     -2381.7665      4230.6394      7827.4278      8518.4452      16345.873      142657.15      41.471955      41.471955      82.943911          16040 
    223000   3803.1412      603077.09      1582.116       604590.54      603235.56      601405.18      1524.8598      3452.2647      10.00429       7884.6856      8496.4616      16381.147      142657.87      41.472026      41.472026      82.944051          16040 
    224000   3803.8651      593172.08      1589.5422      593410.89      593265.09      592840.27      1508.2187     -3023.2479      1093.1152      7886.1863      8357.7433      16243.93       142991.57      41.504337      41.504337      83.008674          16040 
    225000   3761.889       599016.39      1596.9689      599182.1       598144.21      599722.85     -730.00885     -2407.3181      1338.4921      7799.1613      8350.5807      16149.742      142809.12      41.486677      41.486677      82.973353          16040 
    226000   3840.5125      602470.59      1604.3943      604458.23      601550.58      601402.94      1185.5928      3094.7536     -625.86624      7962.1638      8433.7768      16395.941      142649.48      41.471213      41.471213      82.942425          16040 
    227000   3760.3382      602080.2       1611.8208      601602.76      601297.78      603340.05     -3665.7325      3169.572      -1560.6687      7795.9462      8430.3988      16226.345      142669.51      41.473153      41.473153      82.946306          16040 
    228000   3779.8927      599804.21      1619.2484      600808.46      599602.45      599001.73      3389.1028      420.50829      2255.7966      7836.4866      8444.9521      16281.439      142798.53      41.485652      41.485652      82.971303          16040 
    229000   3805.952       599316         1626.6691      599981.89      598610.93      599355.18     -984.46421     -3847.3455     -3647.0567      7890.5128      8352.691       16243.204      142803.61      41.486143      41.486143      82.972286          16040 
    230000   3771.017       600919.38      1634.0925      599173.45      601780.92      601803.75     -239.00298     -1912.4362     -3504.378       7818.0856      8344.1458      16162.231      142743.31      41.480303      41.480303      82.960607          16040 
    231000   3804.102       601339.03      1641.5153      602552.1       598307.61      603157.38     -1223.7629      1108.5644      4944.5252      7886.6774      8456.2394      16342.917      142734.12      41.479413      41.479413      82.958826          16040 
    232000   3765.6909      595514.81      1648.9381      595075.86      596680.13      594788.44     -3637.4309     -891.15473     -4203.3338      7807.0435      8395.9298      16202.973      142914.12      41.496842      41.496842      82.993684          16040 
    233000   3800.2951      596339.31      1656.3674      596993.78      596578.3       595445.86     -5138.5272      401.66116      1381.7774      7878.785       8326.881       16205.666      142929.17      41.498298      41.498298      82.996596          16040 
    234000   3775.1125      604747.19      1663.7899      607191.65      603762.68      603287.25      2097.5749     -804.80645      2785.0685      7826.5762      8449.002       16275.578      142556.91      41.46224       41.46224       82.924479          16040 
    235000   3776.4177      603928.5       1671.2145      603772.72      602571.13      605441.66     -1816.3794      2756.3669     -2378.2255      7829.2824      8462.1489      16291.431      142621.64      41.468514      41.468514      82.937029          16040 
    236000   3803.11        598793.72      1678.6421      597234.41      601645.88      597500.87     -1212.2508     -2448.9696      2711.0397      7884.6209      8359.6966      16244.318      142808.38      41.486605      41.486605      82.973211          16040 
    237000   3805.9088      592921.63      1686.0672      591761.15      594694.29      592309.45     -5605.8943     -1906.9325     -1372.1162      7890.4233      8328.4168      16218.84       143070.91      41.512012      41.512012      83.024023          16040 
    238000   3765.9185      601415.32      1693.4933      601420.82      600706.9       602118.24     -2042.1222      5018.4354     -356.51848      7807.5153      8378.237       16185.752      142694.57      41.475582      41.475582      82.951163          16040 
    239000   3820.0328      600004.11      1700.9183      598420.45      600667.38      600924.49     -4838.5192      1513.4268     -1726.654       7919.7053      8402.9864      16322.692      142732.81      41.479286      41.479286      82.958572          16040 
    240000   3804.1589      599213.66      1708.3541      599782.96      599074.25      598783.77      2482.2691     -832.97314     -2978.3134      7886.7953      8302.7638      16189.559      142750.18      41.480969      41.480969      82.961937          16040 
    241000   3821.0698      599141.92      1715.7815      600053.97      599229.53      598142.27      1881.1508     -1222.8248     -344.72965      7921.8551      8426.4064      16348.261      142848.41      41.490481      41.490481      82.980962          16040 
    242000   3788.378       598148.38      1723.208       598409.02      599028.54      597007.58     -2623.1941      1082.4612     -372.56873      7854.0785      8419.9761      16274.055      142827.81      41.488487      41.488487      82.976974          16040 
    243000   3804.5277      599611.22      1730.6353      597855.8       600431.25      600546.62     -2536.3164     -2292.1338     -241.03008      7887.56        8468.9296      16356.49       142795.37      41.485345      41.485345      82.970691          16040 
    244000   3827.8663      603199.98      1738.0616      602865.78      603151.09      603583.08     -1844.8365     -1364.2491      1830.6595      7935.9458      8362.8742      16298.82       142711.39      41.477211      41.477211      82.954422          16040 
    245000   3809.7741      596842.55      1745.4855      596718.7       594071.41      599737.53     -1521.0103      5637.1258      205.83352      7898.437       8283.7893      16182.226      142793.45      41.485159      41.485159      82.970318          16040 
    246000   3809.3867      595513.38      1752.9135      595096.35      596536.8       594906.98      2838.2732     -791.45925      2497.7566      7897.6336      8378.8455      16276.479      142922.59      41.497662      41.497662      82.995323          16040 
    247000   3815.8233      602467.07      1760.3429      602889.88      602379.05      602132.26      341.46975     -3678.8336      1728.5248      7910.9781      8303.0075      16213.986      142641.78      41.470466      41.470466      82.940932          16040 
    248000   3822.6344      603679.93      1767.7691      604546.35      603067.55      603425.89     -474.37678      702.53134     -181.6325       7925.0989      8445.4839      16370.583      142576.84      41.464172      41.464172      82.928344          16040 
    249000   3802.6464      597032.29      1775.1982      597461.16      595459.28      598176.42      3948.6403      4264.4139     -1843.3168      7883.6597      8398.088       16281.748      142875.53      41.493107      41.493107      82.986214          16040 
    250000   3795.4147      600581.49      1782.6266      599600.09      602519.93      599624.44      5051.547      -447.40074     -245.80465      7868.6669      8376.4066      16245.073      142772.54      41.483134      41.483134      82.966268          16040 
    251000   3784.439       600318.39      1790.0552      602509.32      599539.12      598906.72      2096.2828      4093.3461      2548.4348      7845.9119      8398.4493      16244.361      142757.63      41.481691      41.481691      82.963381          16040 
    252000   3848.6713      599497.75      1797.4831      599935.72      600602.43      597955.12     -631.31009     -222.37582      833.02774      7979.0786      8544.0963      16523.175      142779.47      41.483806      41.483806      82.967611          16040 
    253000   3785.8526      603218.72      1804.9122      602763.13      604181.46      602711.58     -2710.1628      1293.2713     -2241.1054      7848.8427      8445.9406      16294.783      142570.65      41.463572      41.463572      82.927144          16040 
    254000   3762.1832      603141.11      1812.3404      603226.6       602199.89      603996.85     -4183.5182     -1240.2792     -1720.833       7799.7713      8395.8004      16195.572      142612.84      41.467661      41.467661      82.935323          16040 
    255000   3807.4757      596742.61      1819.7685      597891.43      595085.89      597250.49      2265.878      -4445.6025     -1618.9846      7893.6717      8387.3223      16280.994      142912.89      41.496723      41.496723      82.993445          16040 
    256000   3798.6976      595511.83      1827.1941      595025.51      594712.1       596797.88     -1850.1062     -1238.1086     -575.32113      7875.4731      8327.9499      16203.423      142950.79      41.500391      41.500391      83.000782          16040 
    257000   3810.4993      600253.28      1834.6201      600923.62      599800.27      600035.96     -3783.3101     -3320.6726     -3743.8553      7899.9404      8382.627       16282.567      142757.32      41.48166       41.48166       82.963321          16040 
    258000   3804.1937      608591.48      1842.0464      607745.48      606988.35      611040.6       2983.0879     -1158.3048      4075.4607      7886.8675      8621.7692      16508.637      142507.37      41.457437      41.457437      82.914873          16040 
    259000   3796.4951      601602.56      1849.4738      600906.19      600672.26      603229.22     -1293.2751      1594.4836      1657.844       7870.9067      8422.0787      16292.985      142734.02      41.479403      41.479403      82.958806          16040 
    260000   3770.6127      596155.87      1856.8996      593756.49      596825.51      597885.6      -1228.6842      49.338379      708.72645      7817.2473      8362.1327      16179.38       142885.79      41.4941        41.4941        82.9882            16040 
    261000   3820.2339      599812.79      1864.3262      599536.58      599353.24      600548.56      739.87535     -1259.5894     -1085.7411      7920.1223      8303.4343      16223.557      142777.24      41.48359       41.48359       82.96718           16040 
    262000   3806.3824      601838.19      1871.7503      603285.88      600542.13      601686.57     -1631.8151      716.35787     -2701.362       7891.4052      8426.2976      16317.703      142706.62      41.476749      41.476749      82.953498          16040 
    263000   3774.2898      607738.53      1879.1782      607540.21      608187.16      607488.22      236.5716       5310.5916     -4638.6994      7824.8707      8504.7158      16329.587      142406.06      41.44761       41.44761       82.89522           16040 
    264000   3810.0543      599950.23      1886.6041      600479.92      600160.33      599210.45      2115.654      -385.54862      2436.0451      7899.0178      8357.515       16256.533      142743.97      41.480367      41.480367      82.960735          16040 
    265000   3801.4559      592884.98      1894.0291      594572.44      592665.82      591416.68     -4750.4403      2344.2355     -887.06411      7881.1916      8400.8268      16282.018      143048.69      41.509863      41.509863      83.019725          16040 
    266000   3768.3193      600553.03      1901.456       601112.18      599264.62      601282.28      2342.3032     -4165.7656     -1866.3405      7812.4925      8405.2781      16217.771      142752.4       41.481184      41.481184      82.962368          16040 
    267000   3842.3952      603262.47      1908.8874      603096.68      602733.43      603957.29      1765.5432      531.39706      182.32309      7966.067       8526.1987      16492.266      142696.34      41.475753      41.475753      82.951506          16040 
    268000   3814.8502      600194.51      1916.3143      600739.55      599284.04      600559.95      4738.7195      439.85804      812.48399      7908.9606      8347.5657      16256.526      142747.68      41.480727      41.480727      82.961453          16040 
    269000   3801.1742      597953.45      1923.7422      597590.8       598881.24      597388.32     -1424.0565      1820.6666     -2612.1705      7880.6074      8372.9348      16253.542      142794.51      41.485262      41.485262      82.970524          16040 
    270000   3825.5241      597832.5       1931.1725      599124.22      598893.17      595480.12     -2991.5877      196.95814     -2038.6721      7931.0898      8409.1071      16340.197      142830.23      41.488721      41.488721      82.977442          16040 
    271000   3785.2168      600335.08      1938.5993      598921.61      601309.09      600774.55      1908.0257     -218.46284     -1617.9601      7847.5245      8435.5439      16283.068      142686.6       41.474809      41.474809      82.949619          16040 
    272000   3804.0394      603703.82      1946.0278      600806.13      606006.44      604298.89     -2453.2632      545.5671      -735.85135      7886.5477      8418.6698      16305.218      142711.33      41.477205      41.477205      82.95441           16040 
    273000   3828.7863      595707.7       1953.454       593943.79      597670.81      595508.49     -1986.8547      1753.7237      2.208574       7937.853       8370.496       16308.349      143022.15      41.507295      41.507295      83.014591          16040 
    274000   3766.7374      596298.18      1960.8808      594684.12      597239.68      596970.75      1343.2967     -1413.501      -56.373979      7809.2129      8376.9669      16186.18       142942.31      41.499571      41.499571      82.999141          16040 
    275000   3791.1204      602894.49      1968.3078      602487.66      604442.53      601753.29      3525.7478      1409.3703     -313.69967      7859.7639      8463.3466      16323.11       142675.51      41.473734      41.473734      82.947469          16040 
    276000   3771.8934      607875.53      1975.7358      607149.28      609884.45      606592.87     -2595.807       1493.8901     -1196.9772      7819.9025      8417.3346      16237.237      142466.87      41.453509      41.453509      82.907018          16040 
    277000   3802.5227      599612.63      1983.1637      599612.38      599095.74      600129.76      1945.9563     -3998.3825     -900.64967      7883.4032      8382.5942      16265.997      142805.32      41.486309      41.486309      82.972618          16040 
    278000   3842.6997      596492.23      1990.5928      599362.76      594752.05      595361.88     -1112.1194      446.94326      405.41429      7966.6984      8469.4088      16436.107      142980.88      41.503303      41.503303      83.006606          16040 
    279000   3814.8007      597113.78      1998.0217      598070.36      595569.49      597701.5      -904.04608     -2826.8686      310.1342       7908.858       8255.6622      16164.52       142877.98      41.493344      41.493344      82.986688          16040 
    280000   3803.2348      608441.83      2005.4507      608640.01      605995.34      610690.13     -896.82306     -952.70397     -458.38033      7884.8796      8549.2805      16434.16       142451.02      41.451971      41.451971      82.903942          16040 
    281000   3769.5921      604408.76      2012.8781      604118.89      604191.32      604916.06      1704.1912      422.66745      1618.4269      7815.1315      8444.666       16259.797      142614.5       41.467822      41.467822      82.935645          16040 
    282000   3817.4011      595408.47      2020.3059      595568.35      594951.33      595705.72     -16.243446      544.76884      2175.4396      7914.2491      8320.2742      16234.523      142916.6       41.497082      41.497082      82.994164          16040 
    283000   3737.051       597981.9       2027.733       597794.98      598529.58      597621.13     -1917.6275     -2451.0918     -835.04242      7747.6671      8325.4896      16073.157      142843.5       41.490006      41.490006      82.980012          16040 
    284000   3802.0741      600397.23      2035.1581      601845.85      600116.18      599229.66     -4265.8834     -1684.0345      2196.293       7882.4732      8449.4613      16331.934      142750.96      41.481044      41.481044      82.962089          16040 
    285000   3786.4924      602566.86      2042.5936      601448.62      601712.8       604539.15      3184.961      -2030.1001     -1102.2089      7850.1693      8462.1428      16312.312      142666.38      41.47285       41.47285       82.9457            16040 
    286000   3770.0389      598685.43      2050.0224      600335.26      598298.64      597422.39      3606.2596     -1030.7044      212.78744      7816.0576      8299.8081      16115.866      142760.89      41.482006      41.482006      82.964012          16040 
[...]
   3930000   3601.9362      604695.53      6989.4979      608390         606152.45      599544.13     -1505.6285      3819.0571      1517.1858      7467.5466      17235.738      24703.285      140379.8       41.322486      41.322486      82.21134           16040 
   3931000   3610.1259      603494.01      6997.0421      603124.37      607538.99      599818.68     -1251.2825      123.36663      799.77799      7484.5256      17194.103      24678.629      140444.99      41.328882      41.328882      82.224065          16040 
   3932000   3604.0056      601546.8       7004.5814      600213.91      605892.05      598534.45     -1026.366       222.84947      169.28995      7471.8368      17152.195      24624.031      140590.41      41.343141      41.343141      82.252434          16040 
   3933000   3594.9716      593275.89      7012.1157      595498.65      595734.27      588594.75     -558.14984     -1575.6934      579.36074      7453.1076      17072.804      24525.912      140853.14      41.368879      41.368879      82.303639          16040 
   3934000   3600.1749      595051.94      7019.6602      593955.11      599396.04      591804.65     -3766.861      -448.12921     -3297.044       7463.895       17105.074      24568.969      140736.78      41.357483      41.357483      82.280968          16040 
   3935000   3570.7967      597974.21      7027.2032      600177.48      598543.98      595201.18     -1106.6038     -516.78119     -3022.2286      7402.988       17184.022      24587.01       140686.84      41.352591      41.352591      82.271235          16040 
   3936000   3603.803       598502.62      7034.7447      599760.62      601100.28      594646.96      1433.1285      4954.6923      1962.0341      7471.4169      17138.258      24609.675      140625.65      41.346595      41.346595      82.259305          16040 
   3937000   3612.1567      603915.32      7042.2848      606118.51      606466.79      599160.66     -2565.9381     -1753.3152      781.04089      7488.7357      17154.477      24643.212      140535.21      41.33773       41.33773       82.241668          16040 
   3938000   3601.2888      601291.19      7049.8184      603851.75      604261.38      595760.46     -1122.7972      5438.7885     -2606.3846      7466.2044      17186.464      24652.668      140510.52      41.335309      41.335309      82.236852          16040 
   3939000   3595.8679      596286.7       7057.3532      598298.04      598646.22      591915.84     -1834.3813     -6216.1176      2858.668       7454.9658      17158.062      24613.028      140616.85      41.345733      41.345733      82.25759           16040 
   3940000   3577.5948      593389.72      7064.8938      595943.75      592806.67      591418.75      3592.0305      2006.4144      301.74177      7417.082       17180.76       24597.842      140658.64      41.349828      41.349828      82.265738          16040 
   3941000   3648.336       606717.41      7072.4378      607710.18      607362.42      605079.64      4722.691      -1273.8104      2522.2765      7563.7429      17204.409      24768.151      140202.11      41.305044      41.305044      82.176639          16040 
   3942000   3590.0085      602365.44      7079.9734      604272.51      604981.01      597842.78      6775.4536      1376.3477     -2102.9102      7442.818       17239.553      24682.371      140431.81      41.327589      41.327589      82.221493          16040 
   3943000   3620.0811      601038.36      7087.5143      601508.24      605348.12      596258.73      5565.1294      17.339201      3381.852       7505.1648      17192.88       24698.045      140389.1       41.323399      41.323399      82.213156          16040 
   3944000   3633.5835      599469.19      7095.0589      596711.59      603891.96      597804.03     -1469.7117      3373.0081     -975.37851      7533.1579      17137.006      24670.164      140462.63      41.330612      41.330612      82.227507          16040 
   3945000   3609.8154      597809.8       7102.6054      597632.19      599924.09      595873.11     -1196.5856     -4738.1562     -1351.7353      7483.8818      17143.375      24627.257      140576.29      41.341757      41.341757      82.249679          16040 
   3946000   3602.0521      595273.95      7110.1448      596969.44      597195.61      591656.79      5697.1587      1887.741      -125.50199      7467.7868      17130.179      24597.966      140652.06      41.349183      41.349183      82.264455          16040 
   3947000   3594.8316      599973.76      7117.6942      601983.89      595756.95      602180.42      4728.9994     -2263.8237     -772.77003      7452.8173      17164.814      24617.631      140598.19      41.343903      41.343903      82.253951          16040 
   3948000   3595.6948      603895.3       7125.2374      602261.59      604699.93      604724.37     -1990.9767      3207.356       2307.5111      7454.6069      17232.137      24686.744      140412.89      41.325733      41.325733      82.2178            16040 
   3949000   3619.2344      606688.23      7132.7952      608799.09      609153.59      602112.03     -2493.4335     -23.092921      545.29656      7503.4093      17280.453      24783.862      140152.96      41.300217      41.300217      82.167036          16040 
   3950000   3629.9271      599829.65      7140.3256      600171.36      600097.81      599219.78     -4202.7149     -2250.8625      1002.5125      7525.5774      17145.225      24670.802      140452.72      41.32964       41.32964       82.225573          16040 
   3951000   3622.3911      596373         7147.8778      602647.13      593377.16      593094.72      561.27082     -30.838089     -765.59419      7509.9537      17076.032      24585.986      140678.43      41.351767      41.351767      82.269596          16040 
   3952000   3618.4033      593699.04      7155.4255      594498.79      592543.48      594054.85      3060.2776      512.86621     -379.64977      7501.6862      17026.028      24527.715      140833.05      41.366912      41.366912      82.299726          16040 
   3953000   3606.1414      597837.37      7162.968       602376.13      597117.43      594018.54     -15.795006     -1224.8469     -4102.8006      7476.2648      17100.369      24576.634      140702.01      41.354078      41.354078      82.274192          16040 
   3954000   3596.8593      600052.21      7170.5079      603832.42      600083.85      596240.37     -3443.8163      2485.8746     -5036.0877      7457.0211      17169.303      24626.324      140568.96      41.341039      41.341039      82.248251          16040 
   3955000   3636.3574      599260.44      7178.0597      599790.99      603497.63      594492.7      -3474.2126      6637.8649      2523.3552      7538.9087      17082.104      24621.013      140581.91      41.342307      41.342307      82.250775          16040 
   3956000   3607.814       595340.86      7185.5981      595148.06      596744.23      594130.3      -878.4155       4022.4735      2334.6921      7479.7325      17067.138      24546.87       140771.6       41.360894      41.360894      82.287753          16040 
   3957000   3623.436       596425.46      7193.1405      596997.58      596682.53      595596.27     -374.57251      136.13655      2095.6465      7512.12        17068.33       24580.45       140680.64      41.351984      41.351984      82.270027          16040 
   3958000   3597.3135      601135.02      7200.6916      601731.34      605494.04      596179.69      4038.9061     -956.52518     -3450.0742      7457.9627      17170.793      24628.756      140548.72      41.339054      41.339054      82.244303          16040 
   3959000   3629.8984      601559.99      7208.2373      603649.24      601644.15      599386.57     -1487.6377     -2250.5608      557.30705      7525.5179      17094.103      24619.621      140572.68      41.341403      41.341403      82.248976          16040 
   3960000   3616.2622      599200.22      7215.7836      598813.15      601245.83      597541.67     -7199.5494     -2361.3478      3673.26        7497.2472      17117.639      24614.887      140584.53      41.342565      41.342565      82.251287          16040 
   3961000   3622.4388      595965.54      7223.3316      600005.7       592977.3       594913.61      3767.4511      1693.8076      143.20413      7510.0527      17133.751      24643.803      140505.95      41.334861      41.334861      82.23596           16040 
   3962000   3616.2139      603165.82      7230.8712      607602.4       603285.59      598609.47      3350.8571     -2355.6601      2114.637       7497.1472      17175.811      24672.958      140427.73      41.327189      41.327189      82.220697          16040 
   3963000   3660.7225      604897.28      7238.4159      608717.45      604741.3       601233.11     -1383.9431      1821.4287     -967.4005       7589.4226      17090.923      24680.346      140408.16      41.325268      41.325268      82.216876          16040 
   3964000   3640.1072      605307.17      7245.9683      608147.61      604824.23      602949.68     -3247.217       1044.3982      1342.8573      7546.6829      17140.749      24687.431      140389.75      41.323462      41.323462      82.213282          16040 
   3965000   3629.5551      603883.12      7253.5092      601981.08      607194.74      602473.54     -154.66997      3060.285      -2047.7923      7524.8061      17191.523      24716.329      140312.79      41.315911      41.315911      82.198259          16040 
   3966000   3624.0663      605927.16      7261.0552      608236.07      606082.74      603462.67      2148.9971     -3677.1887     -1509.1048      7513.4267      17187.309      24700.735      140353.77      41.319932      41.319932      82.20626           16040 
   3967000   3597.3519      607533.21      7268.6011      610202.71      610300.36      602096.55     -4018.0703      247.93867     -1316.7635      7458.0424      17273.525      24731.568      140269.13      41.311625      41.311625      82.189732          16040 
   3968000   3593.0348      599117.45      7276.1425      597976.04      602356.03      597020.28      3471.7802     -3569.8821      474.84302      7449.0922      17195.552      24644.644      140499.63      41.334241      41.334241      82.234726          16040 
   3969000   3633.9655      599856.82      7283.6867      601067.54      599989.44      598513.47     -1551.6424     -1003.1471     -1581.4513      7533.9499      17106.783      24640.733      140509.35      41.335194      41.335194      82.236623          16040 
   3970000   3616.1565      604043.95      7291.2322      606424.06      600255.5       605452.29     -1857.3105      2850.5711     -578.71476      7497.0283      17169.651      24666.679      140438.83      41.328278      41.328278      82.222864          16040 
   3971000   3626.5805      600090.44      7298.7751      601409.72      603117.53      595744.06      4762.4752     -1220.2735     -2446.6827      7518.6393      17154.135      24672.774      140423.43      41.326767      41.326767      82.219858          16040 
   3972000   3594.7557      599990.03      7306.3206      598479.61      603281.21      598209.25     -1492.5142     -3486.4315      2320.9558      7452.6599      17123.297      24575.957      140683.46      41.35226       41.35226       82.270577          16040 
   3973000   3585.367       595615.4       7313.8616      600361.06      599440.28      587044.85      1529.2346     -2528.0744      1480.5047      7433.1954      17154.819      24588.014      140652.05      41.349182      41.349182      82.264453          16040 
   3974000   3621.1413      598171.12      7321.4014      601265.59      603541.7       589706.06     -1800.1843      2416.6905      209.40077      7507.3628      17081.938      24589.301      140646.56      41.348645      41.348645      82.263384          16040 
   3975000   3605.3505      594704.33      7328.9398      592704.31      598538.67      592870.01     -1702.0873      1778.6673      5612.5823      7474.6251      17119.257      24593.882      140632.68      41.347284      41.347284      82.260677          16040 
   3976000   3570.7187      600288.14      7336.4863      600662.55      602304.55      597897.33     -212.28767     -3475.5546     -2534.4282      7402.8264      17192.262      24595.089      140629.51      41.346974      41.346974      82.260059          16040 
   3977000   3554.0786      596673.37      7344.0149      600163.29      597147.94      592708.88     -2760.5669      1293.8654      1955.6047      7368.328       17234.601      24602.929      140607.37      41.344804      41.344804      82.255742          16040 
   3978000   3577.7861      598091.29      7351.555       598487.85      598191.39      597594.63     -384.33672     -1632.6471      690.2748       7417.4786      17160.95       24578.429      140672.31      41.351168      41.351168      82.268403          16040 
   3979000   3602.1205      595324.27      7359.0925      595688.11      594133.92      596150.78     -32.714686      1527.3718     -3696.5016      7467.9288      17064.424      24532.353      140793.64      41.363053      41.363053      82.292048          16040 
   3980000   3608.3921      599136.02      7366.6308      599897.98      598898.85      598611.21     -82.158308     -1899.9547      1814.2098      7480.931       17164.226      24645.157      140491.46      41.333439      41.333439      82.233132          16040 
   3981000   3585.6902      601208.22      7374.1753      601706.51      603430.78      598487.38     -2295.9464      3016.9087     -3852.8469      7433.8653      17236.52       24670.386      140424.06      41.326828      41.326828      82.21998           16040 
   3982000   3617.7075      601491.71      7381.7164      602974.13      605563.9       595937.09      506.70499      328.51041      7212.3102      7500.2436      17165.503      24665.747      140433.87      41.32779       41.32779       82.221894          16040 
   3983000   3599.9411      607893.85      7389.2623      610276.33      608505.08      604900.14     -1184.8565      761.35552     -1537.0272      7463.4103      17236.705      24700.115      140341.98      41.318775      41.318775      82.203956          16040 
   3984000   3582.8923      606117.51      7396.8104      606746.05      610183.18      601423.29      1278.4667      1129.8208     -3720.1824      7428.0647      17256.525      24684.59       140382.76      41.322777      41.322777      82.211919          16040 
   3985000   3612.0716      602814.65      7404.3608      604553.85      606539.9       597350.19     -314.29054     -947.70566     -3255.023       7488.5593      17179.716      24668.275      140425.87      41.327006      41.327006      82.220333          16040 
   3986000   3580.2677      602227.93      7411.9072      603585.17      604682.9       598415.72      606.50124      2907.9273      1466.0822      7422.6233      17216.834      24639.457      140501.97      41.334471      41.334471      82.235184          16040 
   3987000   3610.9095      598585.19      7419.4547      602508.73      597621.43      595625.42     -1308.2869     -966.91256     -3213.1519      7486.15        17128.053      24614.203      140567.69      41.340914      41.340914      82.248002          16040 
   3988000   3589.2443      592059.14      7426.9976      595459.78      593715.01      587002.64      54.402274     -417.10209      2628.7469      7441.2338      17145.176      24586.41       140640.79      41.348079      41.348079      82.262258          16040 
   3989000   3621.3399      595985.4       7434.5392      597502.92      594785.53      595667.74     -4714.1801     -1620.9695      112.78475      7507.7744      17081.03       24588.804      140633.86      41.3474        41.3474        82.260906          16040 
   3990000   3602.7625      601785.95      7442.0883      603981.62      606709.03      594667.21      1892.0836      2093.4989     -2303.0782      7469.2597      17207.509      24676.769      140397.18      41.324192      41.324192      82.214735          16040 
   3991000   3632.5131      603544.71      7449.6355      603200.27      609913.2       597520.65     -634.78447     -1173.4134     -110.71375      7530.9387      17176.437      24707.376      140313.34      41.315964      41.315964      82.198366          16040 
   3992000   3593.1984      605109.82      7457.1845      605733.23      605865.16      603731.09      1838.0558      2279.6116      895.29193      7449.4313      17260.961      24710.392      140306.07      41.31525       41.31525       82.196945          16040 
   3993000   3611.2467      595331.32      7464.7358      597638.12      594541.9       593813.93      260.2988      -3049.0447      2888.1365      7486.8491      17072.666      24559.515      140709.22      41.354783      41.354783      82.275596          16040 
   3994000   3599.3981      591447.6       7472.2819      594881.85      593593.34      585867.62     -384.7868       876.95021     -651.29571      7462.2845      17061.733      24524.018      140804.25      41.364092      41.364092      82.294116          16040 
   3995000   3584.8828      597075.55      7479.8213      595215.78      603223.75      592787.12     -1192.674      -960.01385     -1482.7535      7432.1914      17155.81       24588.002      140630.26      41.347047      41.347047      82.260205          16040 
   3996000   3581.0871      600848.39      7487.3632      600527.2       603459.68      598558.27     -1373.4205     -1773.3578     -8850.5035      7424.3222      17211.356      24635.678      140499.17      41.334196      41.334196      82.234637          16040 
   3997000   3608.9512      598441.5       7494.9033      602127.22      598836.82      594360.47      1916.3013     -1434.6656     -473.18261      7482.0902      17141.313      24623.403      140529.1       41.33713       41.33713       82.240475          16040 
   3998000   3602.5181      595912.17      7502.4547      595422.01      602584.79      589729.71     -896.44687     -2531.3028      3441.0729      7468.7529      17147.485      24616.238      140546.82      41.338868      41.338868      82.243933          16040 
   3999000   3603.953       602153.29      7510.0014      602324.87      605706.45      598428.56      3113.6422      1584.8839     -1059.6973      7471.7278      17181.882      24653.609      140445.03      41.328886      41.328886      82.224073          16040 
   4000000   3570.6684      601299.05      7517.5564      602072.6       599160.97      602663.58      255.97464      4510.6548      1352.1314      7402.722       17262.066      24664.788      140409.81      41.32543       41.32543       82.217198          16040 
Loop time of 7517.56 on 8 procs for 1000000 steps with 16040 atoms

Performance: 5.747 ns/day, 4.176 hours/ns, 133.022 timesteps/s
61.4% CPU use with 1 MPI tasks x 8 OpenMP threads

MPI task timing breakdown:
Section |  min time  |  avg time  |  max time  |%varavg| %total
---------------------------------------------------------------
Pair    | 7237.3     | 7237.3     | 7237.3     |   0.0 | 96.27
Neigh   | 12.077     | 12.077     | 12.077     |   0.0 |  0.16
Comm    | 39.551     | 39.551     | 39.551     |   0.0 |  0.53
Output  | 1.512      | 1.512      | 1.512      |   0.0 |  0.02
Modify  | 202.11     | 202.11     | 202.11     |   0.0 |  2.69
Other   |            | 24.97      |            |       |  0.33

Nlocal:          16040 ave       16040 max       16040 min
Histogram: 1 0 0 0 0 0 0 0 0 0
Nghost:          14476 ave       14476 max       14476 min
Histogram: 1 0 0 0 0 0 0 0 0 0
Neighs:              0 ave           0 max           0 min
Histogram: 1 0 0 0 0 0 0 0 0 0
FullNghs:  1.65805e+06 ave 1.65805e+06 max 1.65805e+06 min
Histogram: 1 0 0 0 0 0 0 0 0 0

Total # of neighbors = 1658052
Ave neighs/atom = 103.36983
Neighbor list builds = 31844
Dangerous builds = 0
Total wall time: 8:17:11
