
atom_style atomic
units metal
boundary p p p
#atom_modify sort 0 0.0
newton on

read_data data.lammps
Reading data file ...
  orthogonal box = (0 0 0) to (43.790145 43.790145 87.58029)
  1 by 1 by 1 MPI processor grid
  reading atoms ...
  16040 atoms
  read_data CPU = 0.040 seconds
# replicate 10 10 20

### interactions

pair_style flare
pair_coeff * * lmp.flare
Reading potential file lmp.flare with DATE: Thu

# compute unc all flare/std/atom L_inv_lmp.flare sparse_desc_lmp.flare
# compute MaxUnc all reduce max c_unc

mass 1 12.011000
mass 2 28.085000

thermo_style custom step temp press cpu pxx pyy pzz pxy pxz pyz ke pe etotal vol lx ly lz atoms    #c_MaxUnc
thermo 1000
timestep 0.0005
restart 100000 restart_*.dat

#################### Equilibrate at P and T_es ##############################
velocity all create $T 41928459 rot yes dist gaussian
velocity all create 3800 41928459 rot yes dist gaussian
fix mom all momentum 1000 linear 1 1 1 angular

fix 1 all npt temp $T $T $(100.0*dt) iso $P $P $(1000.0*dt)
fix 1 all npt temp 3800 $T $(100.0*dt) iso $P $P $(1000.0*dt)
fix 1 all npt temp 3800 3800 $(100.0*dt) iso $P $P $(1000.0*dt)
fix 1 all npt temp 3800 3800 0.050000000000000002776 iso $P $P $(1000.0*dt)
fix 1 all npt temp 3800 3800 0.050000000000000002776 iso 900000 $P $(1000.0*dt)
fix 1 all npt temp 3800 3800 0.050000000000000002776 iso 900000 900000 $(1000.0*dt)
fix 1 all npt temp 3800 3800 0.050000000000000002776 iso 900000 900000 0.5
dump 1 all custom 1000 1equil.bin id type x y z vx vy vz
run   10000 # report performance
Neighbor list info ...
  update every 1 steps, delay 10 steps, check yes
  max neighbors/atom: 2000, page size: 100000
  master list distance cutoff = 6
  ghost atom cutoff = 6
  binsize = 6, bins = 8 8 15
  1 neighbor lists, perpetual/occasional/extra = 1 0 0
  (1) pair flare/kk, perpetual
      attributes: full, newton on, kokkos_device
      pair build: full/bin/kk/device
      stencil: full/bin/3d
      bin: kk/device
Per MPI rank memory allocation (min/avg/max) = 16.04 | 16.04 | 16.04 Mbytes
   Step          Temp          Press           CPU            Pxx            Pyy            Pzz            Pxy            Pxz            Pyz           KinEng         PotEng         TotEng         Volume           Lx             Ly             Lz          Atoms   
         0   3800           84539.211      0              85134.427      84099.503      84383.704      1075.1264     -195.07342     -877.12361      7878.1732     -2985.8921      4892.2811      167941.93      43.790145      43.790145      87.58029           16040 
      1000   3919.3488      899517.87      7.3113798      898905.48      899067.59      900580.56      1557.4955     -2553.5433      709.56828      8125.6075      12697.794      20823.402      133196.82      40.53417       40.53417       81.06834           16040 
      2000   3741.5354      901099.47      14.922171      901005.86      899518.82      902773.72      2944.5761      1832.4623      52.193206      7756.9642      12563.53       20320.494      132882.37      40.502247      40.502247      81.004494          16040 
      3000   3827.0598      898997.09      22.527323      899316.47      900663.01      897011.79     -947.16797     -387.627        7075.3778      7934.2737      12637.018      20571.292      132938.14      40.507913      40.507913      81.015826          16040 
      4000   3816.1991      899846.93      30.144477      901205.02      899562.74      898773.01      478.63244     -416.20825     -770.76492      7911.7573      12565.075      20476.833      132898.45      40.503881      40.503881      81.007763          16040 
      5000   3825.079       902467.97      37.760441      902595.41      903538.38      901270.12     -5590.2657      741.62376      8562.0172      7930.167       12623.794      20553.961      132865.2       40.500503      40.500503      81.001007          16040 
      6000   3761.5359      900020.07      45.372971      896077.51      903760.59      900222.11     -1359.1059     -1161.5209      1129.1044      7798.4292      12723.762      20522.192      132812         40.495096      40.495096      80.990193          16040 
      7000   3778.0469      901163.14      52.978817      900533.34      900353.1       902602.99     -2789.462      -2410.5435     -4724.1843      7832.6599      12663.717      20496.377      132828.29      40.496753      40.496753      80.993505          16040 
      8000   3839.7669      901440.11      60.582132      901191.5       902527.31      900601.52      2487.6187      894.32535      736.74541      7960.6181      12594.703      20555.321      132860.43      40.500018      40.500018      81.000037          16040 
      9000   3779.566       896424.92      68.200035      896930.76      894417.89      897926.12      272.38553      1953.6093     -2131.4074      7835.8093      12541.402      20377.211      132926.21      40.506701      40.506701      81.013403          16040 
     10000   3802.8288      905196         75.814868      906476.71      905616.69      903494.59      860.75316      3842.1192     -2791.0081      7884.0379      12672.737      20556.775      132746.73      40.488462      40.488462      80.976924          16040 
Loop time of 75.8149 on 8 procs for 10000 steps with 16040 atoms

Performance: 5.698 ns/day, 4.212 hours/ns, 131.900 timesteps/s
61.4% CPU use with 1 MPI tasks x 8 OpenMP threads

MPI task timing breakdown:
Section |  min time  |  avg time  |  max time  |%varavg| %total
---------------------------------------------------------------
Pair    | 72.71      | 72.71      | 72.71      |   0.0 | 95.90
Neigh   | 0.11505    | 0.11505    | 0.11505    |   0.0 |  0.15
Comm    | 0.39843    | 0.39843    | 0.39843    |   0.0 |  0.53
Output  | 0.013294   | 0.013294   | 0.013294   |   0.0 |  0.02
Modify  | 2.3154     | 2.3154     | 2.3154     |   0.0 |  3.05
Other   |            | 0.2625     |            |       |  0.35

Nlocal:          16040 ave       16040 max       16040 min
Histogram: 1 0 0 0 0 0 0 0 0 0
Nghost:          14690 ave       14690 max       14690 min
Histogram: 1 0 0 0 0 0 0 0 0 0
Neighs:              0 ave           0 max           0 min
Histogram: 1 0 0 0 0 0 0 0 0 0
FullNghs:  1.76319e+06 ave 1.76319e+06 max 1.76319e+06 min
Histogram: 1 0 0 0 0 0 0 0 0 0

Total # of neighbors = 1763194
Ave neighs/atom = 109.92481
Neighbor list builds = 283
Dangerous builds = 0
run  990000
Per MPI rank memory allocation (min/avg/max) = 16.47 | 16.47 | 16.47 Mbytes
   Step          Temp          Press           CPU            Pxx            Pyy            Pzz            Pxy            Pxz            Pyz           KinEng         PotEng         TotEng         Volume           Lx             Ly             Lz          Atoms   
     10000   3802.8288      905196         0              906476.71      905616.69      903494.59      860.75316      3842.1192     -2791.0081      7884.0379      12672.737      20556.775      132746.73      40.488462      40.488462      80.976924          16040 
     11000   3807.3644      895393.5       7.6046826      894184.95      894432.7       897562.85      326.58791      2385.1764      3509.4107      7893.441       12512.173      20405.614      133023.43      40.516574      40.516574      81.033148          16040 
     12000   3766.3696      905702.27      15.209852      904955.48      904078.11      908073.2       1824.2926      3179.7376      1418.5761      7808.4506      12673.625      20482.075      132702.69      40.483984      40.483984      80.967969          16040 
     13000   3811.2828      895937.61      22.80849       898990.01      894735.35      894087.46      856.91141     -1377.3233     -2274.484       7901.5647      12538.097      20439.661      133035.79      40.517829      40.517829      81.035659          16040 
     14000   3765.4003      904695.34      30.422847      904282.52      905886.46      903917.05      2940.6191     -4349.4785     -1734.7029      7806.4409      12655.622      20462.063      132733.51      40.487118      40.487118      80.974236          16040 
     15000   3827.9731      900756.87      38.030451      902087.97      899808.18      900374.45     -1598.6507     -5369.5793      2213.4131      7936.167       12594.253      20530.42       132892.57      40.503284      40.503284      81.006567          16040 
     16000   3808.2417      897868.42      45.641177      898118.68      896810.15      898676.44     -3912.082      -1977.6344      558.90591      7895.26        12489.699      20384.959      132890.82      40.503106      40.503106      81.006212          16040 
     17000   3758.5403      904019.25      53.249492      902703.93      905692.64      903661.17      339.01726     -2865.8247     -1746.962       7792.2187      12580.56       20372.779      132751.52      40.488949      40.488949      80.977898          16040 
     18000   3733.1808      890605.84      60.85061       889286.98      888052.86      894477.67     -170.42533     -5708.6126      1362.3633      7739.6435      12350.956      20090.599      133118.35      40.526208      40.526208      81.052417          16040 
     19000   3813.098       906729.01      68.46281       906673.06      905180.65      908333.33     -3596.7781     -1947.3424      2393.2867      7905.328       12630.366      20535.694      132738.89      40.487665      40.487665      80.97533           16040 
     20000   3827.7134      900104.03      76.075059      898759.56      900173.14      901379.38     -2107.9981      3565.9941      7078.2284      7935.6288      12397.659      20333.288      132861.18      40.500094      40.500094      81.000188          16040 
     21000   3786.3892      898514.67      83.683457      898898.83      896651.53      899993.63     -90.545063      3179.8586     -5194.9554      7849.9553      12492.44       20342.395      132940.19      40.508121      40.508121      81.016241          16040 
     22000   3783.5602      902124.49      91.289882      900906.79      901789.86      903676.81     -3535.8371     -1491.5293     -1855.2889      7844.0902      12553.656      20397.746      132835         40.497435      40.497435      80.994869          16040 
     23000   3854.0024      904276.33      98.886376      905638.94      904541.2       902648.85      1224.613      -1694.3903      1587.6373      7990.1311      12573.234      20563.365      132842.38      40.498184      40.498184      80.996368          16040 
     24000   3809.7218      892273.63      106.49626      891313.14      891945.66      893562.09     -2998.0527     -524.21792      4331.8523      7898.3285      12337.565      20235.893      133059.13      40.520198      40.520198      81.040395          16040 
     25000   3842.1856      909520.93      114.11145      911603.43      907983.68      908975.68     -1693.92        1701.3547     -4972.6112      7965.6326      12650.562      20616.195      132673.81      40.481046      40.481046      80.962093          16040 
     26000   3790.7617      892588.99      121.71964      887367.37      894490.62      895908.97     -5781.956      -3064.7751      5601.8667      7859.0202      12285.393      20144.413      133047.35      40.519003      40.519003      81.038005          16040 
     27000   3776.5116      901446.81      129.3208       903625.36      899963.59      900751.47     -868.18122      205.68426      267.98168      7829.4769      12474.998      20304.475      132846.8       40.498634      40.498634      80.997267          16040 
     28000   3803.7926      904950.92      136.92172      904980.25      904688.88      905183.64     -1896.7789     -3633.0019     -1771.1563      7886.036       12548.677      20434.713      132769.23      40.490749      40.490749      80.981499          16040 
     29000   3807.3091      896922.96      144.526        897335.34      896867.62      896565.92     -1477.4567      3099.7706     -230.19378      7893.3265      12453.941      20347.268      132917.35      40.505801      40.505801      81.011601          16040 
     30000   3796.8018      901849.69      152.14507      901862.8       902638.28      901048        -1959.6306      3819.5417      2610.5886      7871.5426      12436.202      20307.745      132736.69      40.487442      40.487442      80.974883          16040 
     31000   3817.7528      898438.81      159.75379      896494.22      897399.1       901423.1      -3121.0487      258.1726       1646.3023      7914.9783      12538.668      20453.646      132855.83      40.499551      40.499551      80.999101          16040 
     32000   3802.6832      906321.87      167.35512      906859.36      905783.93      906322.32      3263.9922     -3962.2808     -626.86265      7883.736       12563.798      20447.534      132723.5       40.4861        40.4861        80.972201          16040 
     33000   3822.6134      888060.75      174.95859      887810.65      888972.75      887398.86      5075.6259      4545.0498      2702.0557      7925.0554      12257.748      20182.804      133255.08      40.540079      40.540079      81.080158          16040 
     34000   3804.0676      904866.99      182.56771      904514.23      907245.4       902841.33     -960.41852      4253.6389     -1525.6176      7886.606       12520.565      20407.171      132745.67      40.488354      40.488354      80.976707          16040 
     35000   3794.1         899680.89      190.18153      897137.5       902737.73      899167.44     -4672.1131     -844.27619      4798.3463      7865.9412      12375.545      20241.487      132962.86      40.510424      40.510424      81.020847          16040 
     36000   3811.3919      904385.51      197.79103      903154.2       907229.94      902772.37     -625.09033     -1925.2388      5181.3531      7901.791       12658.135      20559.926      132841.8       40.498126      40.498126      80.996251          16040 
     37000   3789.1534      898755.88      205.38573      899024.23      897004.52      900238.87      6232.7585      263.58103     -3005.7856      7855.6859      12321.163      20176.849      132968.29      40.510975      40.510975      81.02195           16040 
     38000   3773.1815      901196.03      212.97845      905273.65      898518.83      899795.61      3999.9006      1173.1977      73.657268      7822.573       12435.416      20257.989      132842.94      40.498241      40.498241      80.996483          16040 
     39000   3791.3314      893428.14      220.57532      892160.47      891095.91      897028.04     -3226.9538     -1936.8989     -3111.0385      7860.2015      12440.937      20301.138      133065.02      40.520796      40.520796      81.041593          16040 
     40000   3820.4744      909070.63      228.1847       907213.63      906976.4       913021.88     -2248.4148     -2790.0868     -1366.009       7920.6207      12590.598      20511.218      132631.15      40.476707      40.476707      80.953415          16040 
     41000   3791.1158      893455.32      235.78583      894812.73      893506.49      892046.72     -361.71038     -7052.6773      701.69015      7859.7544      12314.224      20173.979      133029.46      40.517186      40.517186      81.034373          16040 
     42000   3826.2753      900507.89      243.3861       900527.06      900572.27      900424.34     -1969.6071     -1285.7696     -88.847882      7932.6473      12513.279      20445.926      132844.86      40.498436      40.498436      80.996872          16040 
     43000   3792.0169      903213.13      250.98103      906052.44      901579.05      902007.91     -1992.7637     -2341.2748     -925.30795      7861.6226      12437.773      20299.395      132806.99      40.494587      40.494587      80.989175          16040 
     44000   3782.5968      898540.06      258.57476      897487.92      898775.75      899356.52      703.81269      2145.9119     -515.89856      7842.0929      12491.069      20333.162      132944.52      40.508561      40.508561      81.017122          16040 
     45000   3789.7943      898996.88      266.1717       899824.04      898857.21      898309.38      1518.9458      422.82737     -1794.6577      7857.0147      12516.365      20373.379      132895.32      40.503563      40.503563      81.007126          16040 
     46000   3794.121       899320.22      273.77195      896580.6       901457.84      899922.21      1814.7178     -2293.2248     -3978.1244      7865.9847      12452.001      20317.985      132917.05      40.50577       40.50577       81.011541          16040 
     47000   3798.6083      897453.98      281.38043      894789.22      898146.87      899425.85      234.61574      2325.0728     -2206.8849      7875.2878      12312.848      20188.136      132919.83      40.506053      40.506053      81.012107          16040 
     48000   3828.3727      901651.59      288.98357      900430.9       903747.43      900776.45      4076.6459      2155.8729     -449.13447      7936.9956      12489.471      20426.466      132804.7       40.494354      40.494354      80.988709          16040 
     49000   3784.8972      897504.97      296.58682      896693.05      894713.63      901108.22     -899.09076      2115.9568     -4728.39        7846.8619      12390.165      20237.027      132939.41      40.508042      40.508042      81.016084          16040 
     50000   3804.9518      903123.3       304.20434      901386.88      904487.41      903495.62      3901.9439      613.05531     -1480.9768      7888.4392      12545.226      20433.665      132775.74      40.491411      40.491411      80.982822          16040 
     51000   3788.9672      896204.82      311.81169      895505.83      896652.53      896456.11     -2152.0576     -2769.3507     -4618.3952      7855.3         12295.677      20150.977      133000.78      40.514274      40.514274      81.028548          16040 
     52000   3832.9875      900979.8       319.41645      903035.22      898668.51      901235.67     -288.72268      2262.4674     -1546.9807      7946.563       12461.785      20408.348      132830.16      40.496942      40.496942      80.993884          16040 
     53000   3793.1947      892504.31      327.01892      894872.38      891230.1       891410.44     -939.80721     -5638.8954     -2932.0261      7864.0645      12261.34       20125.405      133036.55      40.517907      40.517907      81.035813          16040 
     54000   3739.2936      905881.01      334.62247      902999.8       905400.96      909242.26      3478.3498     -19.862293     -2549.7754      7752.3164      12585.943      20338.259      132688.36      40.482527      40.482527      80.965054          16040 
     55000   3821.4587      898982.49      342.2366       898105.5       899030.76      899811.21     -629.98361      3084.0068      1067.5391      7922.6614      12433.754      20356.415      132896.99      40.503732      40.503732      81.007465          16040 
     56000   3833.6588      900751.61      349.84809      900548.04      899899.02      901807.78     -1699.0163      1908.6039      2902.0116      7947.9548      12338.326      20286.281      132855.75      40.499543      40.499543      80.999086          16040 
     57000   3772.2731      902613.01      357.46033      901095.94      902665.74      904077.36     -179.19034      1551.7518      6242.211       7820.6897      12564.97       20385.659      132789.6       40.49282       40.49282       80.98564           16040 
     58000   3777.0075      890732.11      365.07651      890109.57      890602.69      891484.08     -1892.8         841.56036      3863.5752      7830.5051      12253.345      20083.851      133153.22      40.529747      40.529747      81.059493          16040 
     59000   3784.4885      904411.02      372.68514      902874.88      905067.56      905290.62     -1200.9387      1183.4867      5156.8872      7846.0147      12513.278      20359.293      132831.58      40.497086      40.497086      80.994173          16040 
     60000   3758.2627      897382.51      380.29822      900842.74      896437.76      894867.02     -2390.1108     -4682.3889      2024.9259      7791.6433      12301.099      20092.742      132944.16      40.508524      40.508524      81.017049          16040 
     61000   3847.9886      902076.75      387.90978      901909.21      902586.25      901734.78      1322.6739     -1741.9429     -430.2504       7977.6633      12324.398      20302.061      132880.04      40.502011      40.502011      81.004022          16040 
     62000   3768.3404      902923.91      395.52615      903466.89      905094.46      900210.37     -4099.1382     -1455.8923     -2865.9001      7812.5364      12426.588      20239.125      132794.93      40.493362      40.493362      80.986724          16040 
     63000   3794.4034      897918.67      403.14166      897589.63      898547.51      897618.86     -2515.6919     -3658.3194      97.509923      7866.5704      12327.465      20194.035      132958.19      40.509949      40.509949      81.019899          16040 
     64000   3815.503       904323.36      410.74945      905081.27      902566.73      905322.07     -711.81794      3514.365      -1218.1936      7910.3141      12429.272      20339.586      132802.54      40.494135      40.494135      80.98827           16040 
     65000   3795.9508      897524.16      418.36176      899338.64      896190.99      897042.85     -5125.5072     -1201.6452      128.77762      7869.7783      12216.884      20086.663      133004.48      40.51465       40.51465       81.029299          16040 
     66000   3832.2455      906061.68      425.97729      905538.66      908775.28      903871.11     -1727.1167      173.23504     -2316.3999      7945.0246      12450.177      20395.202      132737.36      40.487509      40.487509      80.975018          16040 
     67000   3775.8141      892951.39      433.58659      895035.77      890423.6       893394.8      -3323.8988     -60.402282      3727.814       7828.0309      12265.335      20093.366      133077.48      40.522061      40.522061      81.044122          16040 
     68000   3787.6837      905698.36      441.20376      906303.53      905615.24      905176.32     -7610.4275      129.31177      4712.4471      7852.639       12546.842      20399.481      132785.04      40.492356      40.492356      80.984712          16040 
     69000   3798.1184      896047.27      448.81246      899216.2       895768.62      893156.99     -1199.1403      998.55721     -692.79863      7874.2723      12274.248      20148.52       133053.65      40.519642      40.519642      81.039283          16040 
     70000   3787.5992      902070.44      456.42727      903864.42      902985.16      899361.74      3321.9293      6679.7423     -695.26415      7852.4638      12367.502      20219.966      132830.88      40.497015      40.497015      80.994031          16040 
     71000   3844.8064      901217.03      464.03788      901551.06      904676.47      897423.56     -3497.3076     -528.7191       1214.0358      7971.066       12322.627      20293.693      132970.25      40.511174      40.511174      81.022347          16040 
     72000   3795.629       898345.38      471.64422      897109.52      899493.1       898433.53      1408.9302     -345.54225     -1027.2698      7869.1113      12292.251      20161.363      132931.06      40.507194      40.507194      81.014387          16040 
     73000   3855.9248      903888.18      479.25998      903779.06      905190.83      902694.66     -4284.8594      2068.706      -2868.0991      7994.1167      12474.97       20469.087      132784.85      40.492338      40.492338      80.984675          16040 
     74000   3780.6556      896960.6       486.86603      894683.35      899757.32      896441.13      95.106657     -2442.5772      4979.83        7838.0682      12307.392      20145.46       132973.5       40.511504      40.511504      81.023008          16040 
     75000   3816.1903      897025.8       494.47932      894975.41      898144.4       897957.59     -1706.0515     -2134.6164      780.1169       7911.7389      12394.108      20305.847      133025.99      40.516834      40.516834      81.033668          16040 
     76000   3790.8274      902987.59      502.09714      903971.57      904525.69      900465.52      1762.1654      1255.969       2867.0694      7859.1566      12363.131      20222.288      132785.08      40.492361      40.492361      80.984721          16040 
     77000   3777.2379      899795         509.70709      901114.58      895858.59      902411.83      1097.8677     -2112.0861      2949.0484      7830.9827      12376.46       20207.443      132959.63      40.510096      40.510096      81.020191          16040 
     78000   3781.2481      901643.15      517.32728      902707.26      901656.97      900565.23      3689.4295      1379.7087      719.81615      7839.2968      12347.527      20186.823      132809.84      40.494877      40.494877      80.989753          16040 
     79000   3807.9341      895560.31      524.93868      898811.82      894994.46      892874.64      604.2088      -879.82927     -4362.313       7894.6222      12191.261      20085.883      132985.34      40.512706      40.512706      81.025412          16040 
     80000   3835.8287      909558.27      532.55033      910627.15      910858.07      907189.59     -731.458        690.26176      1595.1872      7952.4534      12416.467      20368.92       132648.47      40.478469      40.478469      80.956938          16040 
     81000   3782.3783      894439.3       540.16686      892102.56      896180.39      895034.96     -3566.1164     -300.5536      -559.59145      7841.6398      12158.899      20000.539      133021.28      40.516356      40.516356      81.032712          16040 
     82000   3807.4174      904493.54      547.77576      903146.13      904551.05      905783.45      57.654336     -164.04622      5815.8342      7893.551       12291.975      20185.526      132797.68      40.493642      40.493642      80.987283          16040 
     83000   3790.1539      900537.46      555.39238      899408.41      901027.13      901176.83      1408.2204      1395.483      -604.84554      7857.7601      12388.846      20246.606      132910.59      40.505114      40.505114      81.010229          16040 
     84000   3781.3784      898542.49      563.00451      897497.74      898400.42      899729.3       1007.0032      153.32597     -1401.5722      7839.5668      12223.41       20062.977      132895.91      40.503623      40.503623      81.007246          16040 
     85000   3827.4352      906935.35      570.61719      903399.21      908123.17      909283.66      1717.7864      1874.4689     -3290.0851      7935.0519      12398.935      20333.986      132738.29      40.487603      40.487603      80.975207          16040 
     86000   3815.0572      892908.52      578.23467      893093.73      892776.95      892854.87      3566.7663      3447.752      -3061.6274      7909.3899      12065.025      19974.415      133122.81      40.526661      40.526661      81.053323          16040 
     87000   3842.8404      905326.63      585.84562      904184.43      904468.21      907327.25      2333.2428      1184.0007     -588.35298      7966.9901      12333.83       20300.82       132720.08      40.485752      40.485752      80.971504          16040 
     88000   3816.3634      894278.45      593.4595       896374.16      892646.81      893814.4       171.07623      1615.727       4105.8457      7912.0979      12276.517      20188.615      133026.01      40.516836      40.516836      81.033672          16040 
     89000   3753.8833      895882.5       601.07468      895827.66      896646.99      895172.85     -1354.8246      448.45         6663.3773      7782.5639      12255.575      20038.139      132932.58      40.507348      40.507348      81.014696          16040 
     90000   3826.6667      905037.36      608.6828       905561.87      905368.55      904181.67     -1341.7747     -355.42395     -1961.0526      7933.4586      12406.503      20339.961      132768.71      40.490696      40.490696      80.981392          16040 
     91000   3821.4903      898023.65      616.30109      899241.87      898634.48      896194.61      360.83299     -1090.3817     -1240.0684      7922.7268      12293.897      20216.624      133013.81      40.515597      40.515597      81.031195          16040 
     92000   3768.4512      904341.1       623.91309      904683         903847.79      904492.52      2356.5904     -722.59973      1170.3289      7812.7661      12489.669      20302.436      132769.98      40.490826      40.490826      80.981651          16040 
     93000   3837.5831      896730.54      631.52575      895909.63      896479.79      897802.19     -1854.1527     -1667.1052      1254.8737      7956.0906      12226.613      20182.704      133029.15      40.517154      40.517154      81.034309          16040 
     94000   3785.4706      898731.66      639.14336      901154.56      898323.55      896716.88      799.88988      546.73362     -4244.9254      7848.0507      12268.998      20117.049      132925.75      40.506654      40.506654      81.013308          16040 
     95000   3765.1027      905175.94      646.75625      903242.28      907382.16      904903.36      1343.8197     -2292.941       384.02907      7805.8239      12429.137      20234.961      132754.56      40.489258      40.489258      80.978517          16040 
     96000   3840.6959      890934.21      654.3731       891597.76      889249.27      891955.59      1983.7674      2069.0664      4753.6609      7962.5441      12218.601      20181.146      133171.41      40.531593      40.531593      81.063185          16040 
     97000   3845.3353      910067.63      661.98565      907637.88      912104.04      910460.98     -577.55858     -1750.1011     -193.29147      7972.1625      12493.129      20465.292      132663.29      40.479977      40.479977      80.959954          16040 
     98000   3767.0014      900524.71      669.59924      903806.16      898883.07      898884.91      2719.6831     -1421.4781      4732.7377      7809.7604      12247.399      20057.159      132913.54      40.505415      40.505415      81.010829          16040 
     99000   3809.4338      899477.44      677.21745      902200.13      900728.59      895503.62      715.31526      5105.9069      606.0956       7897.7314      12348.585      20246.316      132905.32      40.504579      40.504579      81.009158          16040 
    100000   3794.406       902201.33      684.83154      901659.71      903019.77      901924.51     -1655.4508      403.81289      802.91564      7866.5757      12314.705      20181.28       132797.22      40.493594      40.493594      80.987189          16040 
    101000   3821.3703      897531.69      692.44299      897892.9       896655.48      898046.69     -3399.2276     -1745.0225      2008.6206      7922.4782      12231.31       20153.788      132979.13      40.512075      40.512075      81.024151          16040 
    102000   3816.8937      901597.82      700.05697      904663.02      899947.27      900183.17      1007.6966     -349.63077      386.74429      7913.1973      12357.392      20270.59       132826         40.496519      40.496519      80.993039          16040 
    103000   3778.2789      894839.76      707.67013      896073.42      896189.04      892256.82     -2209.0209     -1538.8989     -3206.3647      7833.141       12262.369      20095.51       133013.67      40.515584      40.515584      81.031167          16040 
    104000   3783.0881      902628.55      715.28967      900637.22      902895.71      904352.71      5017.8582     -1719.8301      679.3058       7843.1114      12280.441      20123.552      132785.01      40.492353      40.492353      80.984706          16040 
    105000   3812.4307      899968.76      722.89525      900018.66      898928.84      900958.78      4458.5196      3016.2882     -1836.5248      7903.9445      12351.266      20255.211      132928.07      40.50689       40.50689       81.01378           16040 
    106000   3814.2096      897891.79      730.50916      898791.08      898154.81      896729.48     -2841.8716      1883.7447     -2797.5404      7907.6326      12183.604      20091.236      132990.82      40.513263      40.513263      81.026526          16040 
    107000   3804.0992      901497.85      738.11918      903201.53      900833.64      900458.37      327.0633       2433.4602      4373.8477      7886.6717      12339.275      20225.947      132929.24      40.507008      40.507008      81.014017          16040 
    108000   3773.1084      899537.44      745.73249      902047.31      896699.74      899865.28     -687.03506     -1807.9801      4827.3545      7822.4213      12233.933      20056.354      132889.2       40.502942      40.502942      81.005884          16040 
    109000   3765.7956      896999.45      753.35263      897125.71      899923.4       893949.23      2107.6632     -175.21654      1209.9404      7807.2605      12310.787      20118.047      133019.55      40.51618       40.51618       81.032359          16040 
    110000   3817.2337      900885.13      760.96468      898964.45      903148.83      900542.12      540.81038     -4111.0351      3239.0727      7913.9022      12269.301      20183.204      132922.6       40.506334      40.506334      81.012669          16040 
    111000   3787.5108      904557.27      768.58107      904857.27      903516.27      905298.28      1140.4222     -166.81402     -1049.9786      7852.2805      12381.203      20233.484      132801.83      40.494063      40.494063      80.988125          16040 
    112000   3774.6684      894848.66      776.1902       894684.83      896872.3       892988.84      928.69453     -693.13125     -2420.1311      7825.6556      12188.717      20014.372      133048.05      40.519073      40.519073      81.038147          16040 
    113000   3795.1633      902633.43      783.80284      901910.42      903598.03      902391.86     -3228.5506      1257.0066     -2793.897       7868.1458      12454.358      20322.503      132885.43      40.502559      40.502559      81.005117          16040 
    114000   3783.8739      900195.37      791.42342      898313.83      901382.75      900889.54     -2844.5738      1175.7465      1886.4921      7844.7404      12263.548      20108.288      132912.33      40.505291      40.505291      81.010582          16040 
    115000   3794.0103      898549.97      799.03478      898814.37      897337.77      899497.77     -1744.5689      1201.7058      2036.086       7865.7552      12244.904      20110.659      132933.56      40.507448      40.507448      81.014896          16040 
    116000   3788.9012      903362.56      806.64793      901128.87      905326.95      903631.86      7281.7222     -3221.1094      1795.437       7855.1631      12376.567      20231.73       132853.04      40.499267      40.499267      80.998534          16040 
    117000   3809.5182      894684.03      814.26316      891532.26      896557.69      895962.13     -1827.3676     -267.6556      -2749.092       7897.9064      12323.384      20221.29       133123.65      40.526746      40.526746      81.053493          16040 
    118000   3802.6288      903301.73      821.87393      906136.99      901189.12      902579.08     -3215.7654      23.346838      3551.3605      7883.6232      12284.629      20168.252      132852.69      40.499232      40.499232      80.998464          16040 
    119000   3834.5771      898879.96      829.48708      900237.46      898604.61      897797.82     -2626.7532      896.08125      4295.6008      7949.8585      12270.068      20219.927      132955.06      40.509632      40.509632      81.019264          16040 
    120000   3787.4337      897121.83      837.09369      896382.79      899979.96      895002.74     -2449.2543      291.08615      4223.0305      7852.1206      12146.171      19998.292      132982.58      40.512427      40.512427      81.024853          16040 
    121000   3770.5331      901826.41      844.69791      902760.69      901380.37      901338.17     -5612.3081     -2345.7238     -696.76598      7817.0822      12339.187      20156.269      132867.22      40.500708      40.500708      81.001416          16040 
    122000   3790.421       904035.23      852.30681      904763.23      901556.98      905785.47      4143.9372      2828.6006      2058.2543      7858.3139      12361.511      20219.825      132821.41      40.496053      40.496053      80.992107          16040 
    123000   3763.0002      893238.58      859.90396      894912.27      890992.8       893810.67      3115.4401      2738.0524     -323.09342      7801.465       12077.14       19878.605      133082.35      40.522555      40.522555      81.04511           16040 
    124000   3815.4229      901468.04      867.51663      901513.02      900795.18      902095.91     -513.9783      -5114.3837     -826.8735       7910.148       12334.483      20244.631      132867.38      40.500724      40.500724      81.001448          16040 
    125000   3763.8003      899597.31      875.12022      900897.21      897793.2       900101.53     -472.9165       3069.2922     -741.08459      7803.1237      12284.445      20087.568      132859.55      40.499929      40.499929      80.999858          16040 
    126000   3760.7112      897812.02      882.72472      901912.18      896952.5       894571.39     -54.654345     -1261.4221     -2787.4513      7796.7195      12378.951      20175.671      132947.97      40.508911      40.508911      81.017822          16040 
    127000   3762.7327      900980.68      890.32369      901752.69      901175.48      900013.86     -1932.6259      414.12103     -1085.8555      7800.9104      12302.11       20103.02       132844.48      40.498398      40.498398      80.996795          16040 
    128000   3819.5889      896524.1       897.91965      900586.66      895520.3       893465.35     -871.40259     -3126.7835     -2322.5247      7918.785       12278.265      20197.05       132986.9       40.512865      40.512865      81.025729          16040 
    129000   3814.1009      905797.49      905.52091      902154.42      906473.85      908764.21     -1853.6836      1049.2581     -2472.5132      7907.4073      12344.834      20252.241      132701.31      40.483844      40.483844      80.967688          16040 
    130000   3840.559       899272.7       913.1166       900399.97      900841.14      896577         1392.1258     -3072.5795     -1986.5088      7962.2601      12267.661      20229.922      133008.4       40.515048      40.515048      81.030095          16040 
    131000   3774.2627      897780.81      920.71917      897528.23      897546.13      898268.06      2028.6553     -1473.9618      4136.5327      7824.8146      12216.082      20040.897      133021.46      40.516374      40.516374      81.032748          16040 
    132000   3809.1267      902167.87      928.31562      900569.03      902996.23      902938.34      1029.3907      1805.5761      1466.2401      7897.0946      12294.165      20191.259      132855.51      40.499519      40.499519      80.999038          16040 
    133000   3808.2647      896629.07      935.91391      894925.43      902454.02      892507.77     -650.54333     -4664.6983      211.16303      7895.3076      12260.57       20155.878      132984.05      40.512575      40.512575      81.025151          16040 
    134000   3789.7191      904002.77      943.5133       905652         904771.74      901584.55      2178.1429     -313.21063      462.96113      7856.8588      12314.134      20170.992      132812.03      40.4951        40.4951        80.990199          16040 
    135000   3753.652       898409.02      951.10987      895947.91      898519.29      900759.87      1007.9186     -3847.7484     -1671.2029      7782.0843      12152.368      19934.452      132960.27      40.51016       40.51016       81.02032           16040 
    136000   3815.3289      894720.57      958.70826      895907.24      893648.83      894605.64     -3612.4505     -1343.0706      1476.9101      7909.9531      12162.986      20072.939      133113.64      40.525731      40.525731      81.051462          16040 
    137000   3791.6655      906701.48      966.31046      907625.74      905186.6       907292.11     -931.68295     -442.98757     -3314.9222      7860.8941      12344.601      20205.495      132757.66      40.489573      40.489573      80.979147          16040 
    138000   3806.619       894611.98      973.9078       894403.39      894813.36      894619.2      -4100.6856      1798.9749     -4654.6321      7891.8958      12203.364      20095.26       133070.73      40.521376      40.521376      81.042752          16040 
    139000   3812.0146      901302.23      981.51247      901334.4       901449.61      901122.69      416.5974      -734.80644     -1622.0498      7903.082       12253.289      20156.371      132859.86      40.49996       40.49996       80.99992           16040 
    140000   3795.787       903651.56      989.11407      902740.33      904353.88      903860.48     -1243.6669     -2486.683       1186.849       7869.4388      12307.675      20177.114      132840.08      40.497951      40.497951      80.995901          16040 
    141000   3805.3552      889031.46      996.71413      886821.63      889577.64      890695.12     -1701.1017     -2111.4321      1032.7959      7889.2755      12160.847      20050.122      133207.19      40.535222      40.535222      81.070444          16040 
    142000   3799.2144      905048.08      1004.3252      905576.24      903108.76      906459.23      3533.9671     -4316.2735     -2716.3286      7876.5444      12434.079      20310.624      132781.64      40.492011      40.492011      80.984022          16040 
    143000   3794.7032      897698.8       1011.9295      898456.13      897566.03      897074.25     -1754.7027     -552.8148      -265.11669      7867.1917      12175.25       20042.442      132967.31      40.510876      40.510876      81.021751          16040 
    144000   3788.8678      902913.68      1019.5341      901915.79      903495.86      903329.38      1218.8976      427.63853     -77.814877      7855.0939      12462.431      20317.525      132883.76      40.502389      40.502389      81.004778          16040 
    145000   3822.6212      893198.25      1027.139       896488.36      890743.2       892363.19     -2450.7351     -1225.9514     -1062.4268      7925.0715      12123.304      20048.375      133085.5       40.522875      40.522875      81.04575           16040 
    146000   3799.4611      905922.82      1034.7438      905206.59      903981.77      908580.09      1468.6174      3132.4105      2776.5344      7877.0559      12281.993      20159.049      132799.11      40.493787      40.493787      80.987573          16040 
    147000   3792.71        898823.22      1042.3537      898758.51      897679.94      900031.21     -1372.1941     -1799.7106      3015.2264      7863.0594      12257.24       20120.299      133005.76      40.51478       40.51478       81.029559          16040 
    148000   3794.1456      897929.79      1049.9634      896107.25      900737.21      896944.91      4649.4851     -2055.4649      1545.8458      7866.0359      12211.507      20077.543      132963.01      40.510439      40.510439      81.020877          16040 
    149000   3796.2349      900616.57      1057.5705      899606.86      898967.65      903275.21     -1380.5135     -5212.9533     -253.35416      7870.3674      12217.355      20087.722      132860.67      40.500042      40.500042      81.000085          16040 
    150000   3831.9791      896602.76      1065.1734      897003.82      896563.27      896241.18      1798.872      -4100.7462     -430.63421      7944.4724      12200.398      20144.871      133024.64      40.516697      40.516697      81.033394          16040 
    151000   3817.4168      908874.87      1072.7764      906516.39      907695.01      912413.2       3785.1436     -16.143759      135.60718      7914.2817      12513.94       20428.222      132703.32      40.484048      40.484048      80.968097          16040 
    152000   3778.2592      895004.71      1080.3855      894536.54      894024.38      896453.21     -1730.2413      3542.0821      3022.0166      7833.1         12166.574      19999.674      133039.38      40.518194      40.518194      81.036387          16040 
    153000   3812.0141      902391.87      1088.0014      902658.68      904833.92      899683.02     -6085.9733     -1260.9735     -1068.0624      7903.0809      12309.489      20212.57       132845.16      40.498467      40.498467      80.996933          16040 
    154000   3803.0086      897075.73      1095.6076      896171.48      895665.72      899389.99     -629.29326     -3388.0711      1873.2764      7884.4107      12352.261      20236.671      133001.47      40.514345      40.514345      81.028689          16040 
    155000   3816.0986      900373.02      1103.2139      901597.61      901641.18      897880.26     -2503.1537      1191.4215      1097.7964      7911.5489      12205.985      20117.534      132912.02      40.50526       40.50526       81.01052           16040 
    156000   3864.2233      903741.07      1110.8172      900183.39      905525.59      905514.23      2722.7769      1619.3323     -362.24066      8011.3212      12273.512      20284.833      132903.96      40.504441      40.504441      81.008881          16040 
    157000   3790.3459      896187.83      1118.4295      895456.37      897074.4       896032.73     -253.32568      2487.608      -5631.8924      7858.1583      12173.404      20031.562      132992.92      40.513476      40.513476      81.026953          16040 
    158000   3822.1299      905794.51      1126.042       906943.48      902648.8       907791.24     -2831.6595      4719.0462     -2783.6521      7924.0529      12313.896      20237.949      132806.85      40.494573      40.494573      80.989146          16040 
    159000   3773.0821      893256.05      1133.645       894684.86      894122.33      890960.96     -4414.963       5940.629       1087.6518      7822.3668      12129.292      19951.659      133054.23      40.5197        40.5197        81.039401          16040 
    160000   3772.2858      902079.8       1141.2505      902244.56      904024.9       899969.94     -872.65942      567.73529     -3356.5564      7820.716       12289.392      20110.108      132841.73      40.498118      40.498118      80.996236          16040 
    161000   3809.8725      900101.49      1148.8503      901451.56      899466.73      899386.19     -326.84823      4250.0976      3951.1455      7898.6409      12250.355      20148.996      132933.54      40.507446      40.507446      81.014891          16040 
    162000   3803.3403      898389.52      1156.4584      898229.46      902607.69      894331.42     -1038.0331     -2436.5138      2692.4362      7885.0983      12155.747      20040.846      132898.29      40.503865      40.503865      81.00773           16040 
    163000   3766.4368      904573.94      1164.0718      901206.83      904499         908015.97      2594.2781     -333.46079     -744.48092      7808.5899      12330.387      20138.977      132788.92      40.492751      40.492751      80.985501          16040 
    164000   3825.7435      897150.72      1171.6809      897181.58      896849.19      897421.39     -1909.7004     -3810.9841      1600.512       7931.5446      12263.219      20194.764      133004.44      40.514645      40.514645      81.029291          16040 
    165000   3780.1671      899964.85      1179.2877      901403.78      898479.12      900011.66      341.49413      3984.0345     -5455.2048      7837.0555      12317.539      20154.595      132948.19      40.508934      40.508934      81.017867          16040 
    166000   3757.5707      908781.59      1186.8935      909688.26      907620.44      909036.07      4456.767      -1804.5595     -1026.3776      7790.2087      12360.491      20150.7        132650.25      40.478651      40.478651      80.957302          16040 
    167000   3806.404       890767.24      1194.4997      891197.46      890160.38      890943.87      506.54565      1037.1358      2124.5167      7891.4499      12129          20020.45       133150.84      40.529505      40.529505      81.05901           16040 
    168000   3806.3788      907970.84      1202.1153      911298.82      905870.94      906742.76     -797.61165     -3697.8809      294.20092      7891.3978      12316.631      20208.029      132681.11      40.481789      40.481789      80.963579          16040 
    169000   3816.9738      899491.57      1209.7203      897848.71      899390.15      901235.86      1788.2981      102.37128     -2284.0067      7913.3633      12218.854      20132.217      132925.26      40.506605      40.506605      81.01321           16040 
    170000   3770.3049      900781.19      1217.3267      897479.49      901866.62      902997.46     -1304.138       1810.5302      3875.4421      7816.6092      12255.229      20071.838      132826.45      40.496565      40.496565      80.99313           16040 
    171000   3793.2226      902670.97      1224.9274      903664.59      902798.23      901550.1      -1245.4779     -1999.9656     -7307.1947      7864.1223      12286.797      20150.92       132825.81      40.4965        40.4965        80.993001          16040 
    172000   3802.8649      896083.72      1232.5357      895031.41      895999.74      897220.01      1270.1751     -574.86576      3067.8513      7884.1126      12269.21       20153.323      132977.28      40.511888      40.511888      81.023776          16040 
    173000   3749.4821      903395.26      1240.1534      899522.28      905644.95      905018.55      3543.2556      1360.5606     -688.04271      7773.4393      12327.691      20101.131      132830.62      40.496989      40.496989      80.993978          16040 
    174000   3781.1157      894175.16      1247.7542      897207.22      891215.68      894102.56     -2709.9509     -672.32238      151.33974      7839.0223      12155.764      19994.787      133071.71      40.521475      40.521475      81.04295           16040 
    175000   3843.7955      907588.87      1255.3503      907766.25      908142.17      906858.19     -701.72457      1007.0503      3525.8428      7968.9701      12438.328      20407.298      132784.55      40.492306      40.492306      80.984613          16040 
    176000   3786.1627      899528.72      1262.9468      899477.12      900641.34      898467.68      2321.7478     -1728.2085      629.27013      7849.4857      12261.62       20111.105      132875.27      40.501527      40.501527      81.003053          16040 
    177000   3816.1233      895188.29      1270.553       894171.04      893549.68      897844.15      530.51545     -2522.4887     -3282.6897      7911.6         12199.714      20111.314      133075.3       40.52184       40.52184       81.043679          16040 
    178000   3812.1167      903522.38      1278.1631      904680.92      904734.1       901152.13      99.745299      5167.7627      662.65361      7903.2935      12291.999      20195.293      132818.71      40.495779      40.495779      80.991558          16040 
    179000   3842.309       896578.81      1285.7614      896810.39      894871.21      898054.84      1555.4322      661.06548      602.49735      7965.8884      12226.372      20192.261      133024.21      40.516654      40.516654      81.033307          16040 
    180000   3812.6282      899501.56      1293.3634      898161.34      899094.45      901248.88     -1240.3718      104.42997     -285.05881      7904.354       12289.325      20193.679      132941.52      40.508256      40.508256      81.016513          16040 
    181000   3814.3207      906145.68      1300.966       905893.29      906088.57      906455.19     -561.5117       4657.474       6453.6012      7907.8629      12290.81       20198.673      132799.08      40.493784      40.493784      80.987568          16040 
    182000   3764.3065      889464.1       1308.5692      889344.54      889693.43      889354.35      1395.1396      1023.4974      5392.333       7804.1732      12097.989      19902.162      133150.08      40.529428      40.529428      81.058857          16040 
    183000   3825.1596      905856.21      1316.1809      904535.19      905102.9       907930.54      2200.145       2096.3596     -2709.2162      7930.3342      12342.693      20273.028      132751.84      40.488981      40.488981      80.977962          16040 
    184000   3763.4378      895972.27      1323.7878      895548.4       897770.48      894597.94      2179.4936     -5850.1368     -208.8887       7802.3723      12159.735      19962.107      132990.61      40.513241      40.513241      81.026482          16040 
    185000   3772.1368      901594.5       1331.3884      900776.43      901791.48      902215.6       987.20116     -1085.6333     -4228.562       7820.407       12376.356      20196.763      132864.41      40.500423      40.500423      81.000846          16040 
    186000   3768.2672      901438.53      1338.9868      900662.75      902788.27      900864.56      2048.7504     -4992.7182      1432.83        7812.3846      12259.319      20071.704      132863.04      40.500284      40.500284      81.000567          16040 
    187000   3832.1288      897550.52      1346.5892      898643.85      898269.62      895738.11     -2119.3112      6187.2423      811.43482      7944.7827      12283.981      20228.763      133026.39      40.516874      40.516874      81.033748          16040 
    188000   3777.2165      907100.51      1354.2024      907841.59      906477.25      906982.69     -1905.7425      4923.8968     -3168.3915      7830.9384      12391.967      20222.905      132711.3       40.48486       40.48486       80.96972           16040 
    189000   3798.2378      892202.77      1361.8093      891226.06      896021.97      889360.29     -5064.6911      717.8915      -1030.0572      7874.5197      12084.223      19958.743      133155.47      40.529975      40.529975      81.059951          16040 
    190000   3800.6975      901531.64      1369.4137      899413.85      903924.65      901256.41     -2729.3342     -1387.6648     -1415.2838      7879.6192      12214.472      20094.091      132899.38      40.503975      40.503975      81.00795           16040 
    191000   3850.3231      899577.99      1377.0116      899498.77      897187.39      902047.79      1154.163      -1659.2322      4088.4274      7982.5032      12215.258      20197.761      132944.43      40.508552      40.508552      81.017103          16040 
    192000   3832.2228      902497.15      1384.6138      903124.01      901939.01      902428.43      900.02304      1522.1573      145.92435      7944.9777      12216.44       20161.417      132881.22      40.502131      40.502131      81.004262          16040 
    193000   3774.3144      900028.51      1392.2281      899403.15      899104.65      901577.74      2596.726      -1716.2602     -532.1516       7824.9217      12312.276      20137.198      132928.25      40.506908      40.506908      81.013816          16040 
    194000   3756.6314      894646.6       1399.8352      893623.44      895761.5       894554.87      1195.1312      715.36005     -1514.675       7788.2612      12132.851      19921.112      133057.27      40.52001       40.52001       81.040019          16040 
    195000   3787.0008      906447.94      1407.4475      907060.57      906660.52      905622.73      2695.1592      2010.4809     -3088.3514      7851.2231      12404.596      20255.819      132773.95      40.491229      40.491229      80.982458          16040 
    196000   3792.3709      890693.65      1415.0552      888410.58      891411.14      892259.22     -3879.7187     -3412.2171     -15.718678      7862.3564      12132.85       19995.206      133157.37      40.530168      40.530168      81.060337          16040 
    197000   3774.7751      901377.45      1422.6674      898916.84      903922.43      901293.1       4634.1024     -3152.4625      3430.0939      7825.8769      12335.411      20161.287      132837.08      40.497645      40.497645      80.99529           16040 
    198000   3827.2688      900270.29      1430.2846      896487.84      903034.88      901288.14     -2965.328      -5350.431      -3052.8626      7934.7069      12247.505      20182.212      132909.51      40.505005      40.505005      81.01001           16040 
    199000   3775.0103      900207.78      1437.8904      897617.73      901506.1       901499.5       2317.3101     -2206.6015     -689.25586      7826.3644      12230.439      20056.803      132890.6       40.503084      40.503084      81.006168          16040 
    200000   3822.6715      903665.03      1445.5034      903198.32      905298.26      902498.51     -128.79275     -4842.5118      3246.9611      7925.1757      12287.444      20212.62       132806.62      40.49455       40.49455       80.9891            16040 
    201000   3770.0266      897961.27      1453.1128      899162.96      898357.63      896363.23      1961.8423      3529.8098      4206.4527      7816.0323      12246.943      20062.975      133006.03      40.514807      40.514807      81.029614          16040 
    202000   3803.1534      907303.15      1460.7284      906524.52      907420.29      907964.65      810.68536     -1844.8448      2628.47        7884.7107      12383.945      20268.656      132727.46      40.486503      40.486503      80.973005          16040 
    203000   3773.8519      892248.2       1468.3567      890933.98      890402.96      895407.67      961.29776      3807.2834      1561.1813      7823.9628      12074.474      19898.437      133148.72      40.529291      40.529291      81.058581          16040 
    204000   3814.5955      904926.3       1475.9744      905339.01      902788.93      906650.97     -2721.532      -2828.3835     -2681.4467      7908.4327      12329.078      20237.51       132828.77      40.496802      40.496802      80.993603          16040 
    205000   3816.9207      894056.25      1483.5882      894362.25      894033.97      893772.51     -1649.2721      5528.7466     -447.21839      7913.2532      12271.683      20184.936      133021.43      40.516371      40.516371      81.032741          16040 
    206000   3809.2049      900245.6       1491.2025      902316.65      898324.57      900095.58      497.60755     -2313.9553      2058.6056      7897.2569      12258.742      20155.998      132887.52      40.502771      40.502771      81.005541          16040 
    207000   3736.0481      897330.37      1498.8183      898698.24      893701.78      899591.09      2869.68       -6655.1526     -762.46098      7745.5878      12217.071      19962.659      132996.13      40.513802      40.513802      81.027604          16040 
    208000   3814.4774      905363.81      1506.4462      907038.29      904419.76      904633.38     -1926.4451     -1985.0924      1701.4595      7908.1877      12334.839      20243.026      132779.03      40.491746      40.491746      80.983492          16040 
    209000   3777.1429      898005.3       1514.0635      900512.22      896256.55      897247.12     -106.85035      4299.8721      4856.4623      7830.7857      12192.306      20023.092      132994.63      40.513649      40.513649      81.027299          16040 
    210000   3774.1997      900492.36      1521.6806      900951.8       899959.21      900566.07      4308.4141      1330.4978      1903.3092      7824.6838      12310.044      20134.728      132918.88      40.505956      40.505956      81.011913          16040 
    211000   3769.2158      901323.32      1529.288       903066.88      901630.67      899272.41     -979.82666      6742.1781      4058.3625      7814.3513      12293.298      20107.649      132856.2       40.499589      40.499589      80.999177          16040 
    212000   3821.6353      896935.09      1536.8929      895838.96      897755.92      897210.39     -1197.78        4440.1833     -3211.5675      7923.0275      12275.514      20198.541      132947.57      40.508871      40.508871      81.017742          16040 
    213000   3805.4403      899346.75      1544.5111      900786.02      897859.27      899394.96      325.9155      -2998.8998      2212.5955      7889.452       12315.055      20204.507      132895.37      40.503568      40.503568      81.007136          16040 
    214000   3782.0577      899584.29      1552.1266      901123.38      902239.11      895390.39     -1878.0716     -434.36978      859.48151      7840.9751      12221.144      20062.119      132926.42      40.506722      40.506722      81.013444          16040 
    215000   3829.4262      900740.66      1559.7433      902292.63      898252.74      901676.6       1312.9345     -2117.2116     -4025.1085      7939.1797      12392.64       20331.819      132882.84      40.502296      40.502296      81.004591          16040 
    216000   3779.6659      903841.9       1567.3503      904602.65      902365.17      904557.89     -1755.3635     -1239.4129      3544.0753      7836.0164      12281.6        20117.617      132797.59      40.493632      40.493632      80.987265          16040 
    217000   3800.2812      889849.4       1574.9586      890745.23      889578.67      889224.28     -200.66646     -4698.5866     -1484.4942      7878.7561      12142.118      20020.875      133199.26      40.534418      40.534418      81.068836          16040 
    218000   3778.9145      907627.82      1582.584       910461.54      903854.74      908567.17     -1577.1093     -6090.5071      2583.5423      7834.4587      12382.287      20216.746      132716.43      40.485381      40.485381      80.970761          16040 
    219000   3776.2937      899453.81      1590.1934      899209.11      899489.07      899663.27      1704.6884     -4552.8576     -2088.1871      7829.0252      12312.016      20141.041      132905.68      40.504616      40.504616      81.009232          16040 
    220000   3843.6034      899275.68      1597.8101      900056.09      899692.56      898078.4      -2868.5386     -1843.4427      1145.4239      7968.572       12197.978      20166.55       132946.8       40.508793      40.508793      81.017586          16040 
    221000   3760.4355      902268.18      1605.4233      904946.97      900786.23      901071.34      2433.4594     -19.743491      2555.0355      7796.148       12366.869      20163.017      132789.15      40.492774      40.492774      80.985548          16040 
    222000   3823.0589      897901.14      1613.0311      898234.38      895616.75      899852.3       967.88246      5619.3575     -3951.584       7925.9789      12254.379      20180.358      132971.66      40.511318      40.511318      81.022635          16040 
    223000   3784.3026      899268.73      1620.6506      897856.94      899666.46      900282.8       2822.1686     -1109.0789     -189.22986      7845.6293      12197.438      20043.068      132943.16      40.508423      40.508423      81.016846          16040 
    224000   3829.3847      906333.68      1628.2639      908318.3       905047.26      905635.49     -430.8114       5366.0295     -80.553447      7939.0937      12366.475      20305.569      132719.37      40.48568       40.48568       80.97136           16040 
    225000   3814.6469      893398.02      1635.8759      894220.02      894230.83      891743.21      144.08527      6047.825       183.60984      7908.5391      12089.649      19998.189      133078.25      40.522139      40.522139      81.044279          16040 
    226000   3770.6489      903289.3       1643.4883      901289.57      904494.76      904083.56     -3343.3925     -3535.8024      2513.5096      7817.3224      12375.086      20192.408      132818.28      40.495735      40.495735      80.991469          16040 
    227000   3811.1424      899017.39      1651.0965      902317.22      898543.89      896191.08      970.54699      103.02521      2133.0946      7901.2736      12225.956      20127.23       132902.33      40.504275      40.504275      81.00855           16040 
    228000   3778.609       901953.78      1658.7142      905351.77      899413.62      901095.96      1251.4881     -1276.2243     -894.58203      7833.8252      12288.801      20122.626      132849.01      40.498857      40.498857      80.997715          16040 
    229000   3808.5697      901477.38      1666.325       901139.74      902078.73      901213.68      1374.7709     -453.74929      426.2767       7895.9398      12353.888      20249.828      132862.74      40.500253      40.500253      81.000506          16040 
    230000   3780.4078      893925.36      1673.9383      895355.15      894960.57      891460.36     -249.12933     -38.99547       4631.7664      7837.5546      12124.891      19962.445      133088.35      40.523164      40.523164      81.046327          16040 
    231000   3842.8405      904432.86      1681.5512      903545.96      903430.14      906322.46      2633.2008     -2269.8324      1755.5003      7966.9902      12330.03       20297.02       132762.79      40.490094      40.490094      80.980189          16040 
    232000   3844.4879      896599.74      1689.1578      895590.49      897497.68      896711.05      158.09619      418.79118      459.33918      7970.4056      12187.43       20157.836      133007.84      40.514991      40.514991      81.029982          16040 
    233000   3822.0086      900100.08      1696.773       899596.5       899199.23      901504.5       3307.7728     -1710.382      -2295.5026      7923.8014      12237.808      20161.61       132876.24      40.501625      40.501625      81.00325           16040 
    234000   3811.5166      900068.02      1704.3831      899782.54      901259.9       899161.61      671.31089      1572.8757      1070.2407      7902.0495      12245.165      20147.215      132914.21      40.505482      40.505482      81.010964          16040 
    235000   3814.1717      895461.44      1711.9975      896524.38      894170.46      895689.48      5124.235      -4008.6878      2730.5664      7907.554       12197.579      20105.133      133046.2       40.518885      40.518885      81.037771          16040 
    236000   3833.3929      902688.18      1719.6132      902395.88      901195.86      904472.8       173.76838      3453.8367     -2495.2697      7947.4035      12246.668      20194.072      132815         40.495402      40.495402      80.990804          16040 
    237000   3776.3861      896405.07      1727.2206      897213.68      896310.28      895691.26      3317.3964      1924.5097      6842.7235      7829.2169      12361.942      20191.159      132975.33      40.51169       40.51169       81.023379          16040 
    238000   3826.827       905214.74      1734.8367      903952.79      904762.17      906929.27     -142.66837      1966.9117      1422.4413      7933.791       12330.723      20264.514      132791.66      40.493029      40.493029      80.986058          16040 
    239000   3762.7607      893286.64      1742.4488      893705.11      892201.34      893953.45      1212.6823     -140.5265       1265.4858      7800.9685      12090.343      19891.312      133057.14      40.519996      40.519996      81.039992          16040 
    240000   3799.0166      903403.99      1750.065       904758.79      903511.27      901941.9       1054.6549     -1179.4064      707.76437      7876.1344      12368.379      20244.514      132779.52      40.491795      40.491795      80.983591          16040 
    241000   3770.7607      898009.17      1757.6749      897246.51      896231.42      900549.58     -4964.8753     -3987.4409     -953.16588      7817.5542      12209.178      20026.733      132938.18      40.507917      40.507917      81.015834          16040 
    242000   3808.5487      901577.42      1765.2866      901294.68      900955.71      902481.86     -3914.5614      4272.2808     -2928.3004      7895.8963      12328.387      20224.283      132875.29      40.501528      40.501528      81.003056          16040 
    243000   3823.1334      903939.23      1772.9004      903292.87      905320.21      903204.62     -1655.483       2796.2134     -4331.485       7926.1335      12274.747      20200.88       132817.04      40.495609      40.495609      80.991217          16040 
    244000   3751.9608      893558.65      1780.5173      895577.85      895553.42      889544.68      4920.3365      2025.9298      4587.9228      7778.5782      12206.438      19985.016      133055.52      40.519832      40.519832      81.039663          16040 
    245000   3785.5401      903192.39      1788.1319      903463.45      903428.82      902684.89     -3601.7603     -2382.8474      6116.4325      7848.1949      12421.698      20269.893      132802.53      40.494134      40.494134      80.988269          16040 
    246000   3796.8214      898109.13      1795.7426      898080.35      900149.5       896097.54     -459.54442     -2355.1617      1366.2749      7871.5833      12249.591      20121.174      132945.91      40.508702      40.508702      81.017403          16040 
    247000   3788.9389      898126.37      1803.3541      898418.19      897035.75      898925.17      4545.1765      7018.6823      369.0389       7855.2413      12251.033      20106.274      132987.68      40.512944      40.512944      81.025888          16040 
    248000   3793.3899      902201.85      1810.9678      904460.05      900391.46      901754.04     -1021.3844     -6353.1953      706.45727      7864.4691      12315.35       20179.819      132878.59      40.501863      40.501863      81.003726          16040 
    249000   3775.325       892053.34      1818.5848      892359.5       892699.8       891100.71      291.26369      1850.9825      1978.0485      7827.0169      12114.459      19941.476      133113.92      40.525759      40.525759      81.051518          16040 
    250000   3815.0776      909456.91      1826.2029      913004.36      910446.58      904919.78     -1281.748       4057.123      -1753.7878      7909.432       12367.217      20276.649      132684         40.482084      40.482084      80.964167          16040 
    251000   3782.9576      897027.13      1833.8119      896201.17      900052.48      894827.72      1861.8084      1734.2573     -3290.3614      7842.8408      12148.368      19991.208      132956.99      40.509827      40.509827      81.019655          16040 
    252000   3820.3617      898777.31      1841.4199      899487.05      897581.63      899263.25     -345.69373      2963.2831      2146.187       7920.387       12219.667      20140.054      132956.87      40.509815      40.509815      81.019631          16040 
    253000   3795.8758      902260.67      1849.0297      903426.9       899519         903836.12     -1385.8454      4884.7592     -3324.6268      7869.6228      12220.672      20090.294      132838.43      40.497783      40.497783      80.995565          16040 
    254000   3773.9775      893044.6       1856.6461      893275.64      895911.58      889946.59      3135.4066      1540.2244      2420.1562      7824.2233      12217.455      20041.679      133070.23      40.521325      40.521325      81.042651          16040 
    255000   3796.3513      909410.94      1864.2578      908358.12      908592.49      911282.22      5268.2707     -4286.1065      1192.7275      7870.6088      12423.35       20293.959      132676.09      40.481279      40.481279      80.962558          16040 
    256000   3779.2998      892370.31      1871.8739      897368.07      890097.58      889645.3      -6583.2496      1299.1647     -2995.5742      7835.2574      12214.904      20050.161      133085.79      40.522905      40.522905      81.045809          16040 
    257000   3842.1712      901532.95      1879.4836      900659.74      905448.5       898490.62     -130.87384     -2016.3883     -148.56535      7965.6027      12301.511      20267.114      132881.32      40.502141      40.502141      81.004283          16040 
    258000   3768.625       898214.31      1887.0902      897345.98      895287.11      902009.85     -3753.3799      3005.9915     -1113.7486      7813.1264      12196.251      20009.377      132940.25      40.508128      40.508128      81.016255          16040 
    259000   3762.5795      902647.35      1894.7113      903356.47      900535.72      904049.86     -6062.4506     -1128.4923      23.32184       7800.5929      12361.163      20161.756      132800.53      40.493931      40.493931      80.987862          16040 
    260000   3812.3556      902140.22      1902.3239      900568.52      903460.62      902391.53      606.17738      6667.5462     -2189.8112      7903.7889      12347.16       20250.949      132810.11      40.494905      40.494905      80.98981           16040 
    261000   3788.6325      894393.49      1909.9377      893166.64      894460.6       895553.24     -2275.5817     -1660.7893     -1772.9359      7854.6061      12165.63       20020.236      133048.51      40.519121      40.519121      81.038241          16040 
    262000   3833.1203      904192.81      1917.5463      902554.56      905112.35      904911.53      3207.7134     -2341.9379      1862.471       7946.8382      12319.601      20266.44       132792.64      40.493129      40.493129      80.986259          16040 
    263000   3765.4266      897770.81      1925.1546      896352.97      898011.11      898948.36      27.376404      1851.0387      1036.9658      7806.4956      12250.4        20056.896      132954.71      40.509596      40.509596      81.019192          16040 
    264000   3820.1102      903318.26      1932.7705      902464.15      905304.04      902186.58      4296.7692     -7047.1515     -789.99949      7919.8657      12376.127      20295.992      132840.94      40.498038      40.498038      80.996075          16040 
    265000   3788.0308      895210.23      1940.3795      895888.21      895569.97      894172.52      2458.6383     -736.64832      2579.4529      7853.3585      12183.04       20036.398      133010.33      40.515244      40.515244      81.030487          16040 
    266000   3834.4233      905268.55      1947.9939      907035.66      900936.05      907833.94     -5130.926       4799.6309      4676.3225      7949.5397      12341.219      20290.758      132782.68      40.492116      40.492116      80.984232          16040 
    267000   3781.3306      895313.76      1955.5961      894435.32      896494.67      895011.28      3684.8012      861.33501      1027.1221      7839.4676      12167.064      20006.532      132964.81      40.510622      40.510622      81.021244          16040 
    268000   3797.212       896951.14      1963.1992      895099.58      897984.32      897769.53      2417.3085      1893.3369      784.57113      7872.3931      12265.705      20138.098      132992.43      40.513427      40.513427      81.026853          16040 
    269000   3773.6169      902143.66      1970.8023      901054.8       902589.73      902786.45      94.47612       1384.3339      1088.6678      7823.4756      12250.002      20073.477      132884.88      40.502502      40.502502      81.005005          16040 
    270000   3779.7961      898667.62      1978.4028      901088.02      896051.05      898863.79     -6141.5379      2832.6349     -3808.2456      7836.2864      12227.952      20064.238      132952.67      40.509389      40.509389      81.018777          16040 
    271000   3776.215       903286.31      1986.0175      902111.19      903959.8       903787.95     -1527.9625      5547.0852      4780.3343      7828.862       12245.992      20074.854      132859.4       40.499914      40.499914      80.999828          16040 
    272000   3796.8674      899108.28      1993.626       897309.91      899567.58      900447.34      170.71293      2427.7312     -3482.2204      7871.6787      12232.218      20103.896      132940.47      40.508149      40.508149      81.016298          16040 
    273000   3798.2311      901092.05      2001.2327      900989.77      902148.19      900138.18     -2591.5883      3083.4084      1413.2308      7874.5059      12281.248      20155.754      132890.69      40.503093      40.503093      81.006186          16040 
    274000   3800.9953      901969.73      2008.8323      901693.01      900621.85      903594.33      252.06243     -3238.6615      2677.105       7880.2366      12250.363      20130.599      132835.79      40.497514      40.497514      80.995029          16040 
    275000   3799.8836      893146.18      2016.4324      893626.44      892011.48      893800.62      1452.3534      2407.8054      2043.4494      7877.9319      12088.153      19966.085      133141.81      40.528589      40.528589      81.057179          16040 
    276000   3815.2659      907652.1       2024.0331      906194.71      909521.06      907240.53     -2712.1793      6061.8954      539.86956      7909.8224      12422.743      20332.565      132710.01      40.484728      40.484728      80.969457          16040 
    277000   3813.9408      895580.98      2031.6279      894240.42      896427.49      896075.01     -775.74708      717.83869      614.64102      7907.0752      12237.891      20144.966      133057.67      40.52005       40.52005       81.040099          16040 
    278000   3861.3158      901439.54      2039.2251      902558.91      899738.59      902021.13      1150.1733     -318.46128     -6.6023122      8005.2933      12274.481      20279.774      132926.31      40.506711      40.506711      81.013422          16040 
    279000   3789.1618      900351.3       2046.8252      900367.24      899691.61      900995.04      1303.6811     -3137.7882      2191.9924      7855.7033      12251.443      20107.146      132886.39      40.502656      40.502656      81.005313          16040 
    280000   3791.5486      897271.83      2054.424       895622.47      895633.02      900560.01      366.33599      1759.4812     -2633.3753      7860.6517      12238.831      20099.482      133009.58      40.515168      40.515168      81.030336          16040 
    281000   3760.9837      906441.48      2062.0218      904982.72      904511.93      909829.77     -3963.1598     -1808.0374     -1544.6416      7797.2844      12299.683      20096.967      132765.4       40.49036       40.49036       80.980721          16040 
    282000   3785.3787      894589.98      2069.6189      891303.94      893705.41      898760.58     -839.93546      157.73327      2747.9897      7847.8603      12169.443      20017.304      133096.61      40.524002      40.524002      81.048005          16040 
    283000   3775.6117      903408.24      2077.2132      903033.94      903008.3       904182.46      2691.4258     -1810.6632      818.61289      7827.6112      12195.342      20022.953      132848.22      40.498778      40.498778      80.997556          16040 
    284000   3755.733       899732.97      2084.8118      902019.81      896653.67      900525.42     -1768.8372      5107.9698     -2401.7103      7786.3986      12335.759      20122.158      132865.93      40.500578      40.500578      81.001155          16040 
    285000   3830.7399      898425.25      2092.413       898272.04      896656.22      900347.51     -2545.9574     -2223.7342      980.52292      7941.9032      12229.438      20171.341      132957.96      40.509926      40.509926      81.019853          16040 
    286000   3805.2781      905121.26      2100.013       904118.2       906661.27      904584.32     -948.72283     -1901.0059     -2920.3576      7889.1157      12351.049      20240.165      132834.48      40.497381      40.497381      80.994762          16040 
[...]
   3930000   4508.5977      900152.68      7179.7419      890896.49      891948.31      917613.25      41830.942      368.14579      4562.8141      9347.2403      23982.503      33329.743      121206.57      39.524907      39.524907      77.586195          16040 
   3931000   4480.4784      901269.6       7187.5549      891916.81      891435.62      920456.36      47138.422     -446.40906      3487.4085      9288.9433      24092.362      33381.306      121113.99      39.514841      39.514841      77.566435          16040 
   3932000   4493.6813      901045.13      7195.3757      891458.3       894801.25      916875.83      46872.845     -1237.5845     -3533.427       9316.3157      24056.072      33372.387      121127.63      39.516324      39.516324      77.569347          16040 
   3933000   4505.1653      903038.65      7203.1959      893378.15      893359.65      922378.15      50388.83       4620.2539      413.82804      9340.1242      24063.636      33403.761      121070.24      39.510082      39.510082      77.557094          16040 
   3934000   4500.1961      903138.9       7211.0214      894014.35      890997.46      924404.88      44732.093     -4913.0324      530.72815      9329.8221      24079.378      33409.2        121061.02      39.50908       39.50908       77.555126          16040 
   3935000   4519.7564      904083.59      7218.8443      897881.29      897434.14      916935.33      44123.134      4366.8724     -3454.698       9370.3746      24034.027      33404.402      121067.71      39.509807      39.509807      77.556554          16040 
   3936000   4503.2485      898285.97      7226.6522      887300.65      890659.17      916898.09      46439.047      613.49075      4234.2735      9336.1503      23981.111      33317.261      121221.92      39.526575      39.526575      77.589469          16040 
   3937000   4517.9805      898366.05      7234.4584      887833.3       892945.62      914319.24      42985.682     -3883.7787     -4445.1105      9366.6929      23933.621      33300.314      121251.41      39.52978       39.52978       77.59576           16040 
   3938000   4471.4889      900698.35      7242.2677      899178.74      889251.8       913664.53      46142.246      659.17965     -293.52953      9270.3062      24098.499      33368.805      121128.77      39.516449      39.516449      77.569591          16040 
   3939000   4513.3947      897694.2       7250.0766      886335.56      896199.37      910547.68      48802.664      804.38023      3771.946       9357.1856      24002.871      33360.057      121143.44      39.518044      39.518044      77.572722          16040 
   3940000   4525.9585      900215.53      7257.8967      889916.69      896228.49      914501.43      48471.675     -2951.1947      1691.8132      9383.2329      23947.004      33330.237      121195.82      39.523738      39.523738      77.5839            16040 
   3941000   4510.8477      904510.39      7265.7199      900254.25      893734.42      919542.49      46435.384      3135.1215     -35.288893      9351.9051      24046.823      33398.728      121072.99      39.510382      39.510382      77.557682          16040 
   3942000   4487.0258      910237.9       7273.5538      903618.11      905347.67      921747.93      45864.798     -3875.7543     -2877.3047      9302.5175      24193.213      33495.73       120900.24      39.491581      39.491581      77.520777          16040 
   3943000   4545.7381      895507.46      7281.3611      886485.34      888195.47      911841.58      48080.062      2263.3772      4162.6783      9424.2399      23870.168      33294.408      121256.96      39.530383      39.530383      77.596944          16040 
   3944000   4449.2821      892685.01      7289.167       882445.1       882501.39      913108.54      43971.003      119.32186     -2658.9885      9224.267       24015.742      33240.009      121354.04      39.54093       39.54093       77.617648          16040 
   3945000   4539.7835      900397.34      7296.9757      892210.86      892368.7       916612.47      45320         -2902.658      -808.39644      9411.8949      23963.512      33375.406      121110.4       39.51445       39.51445       77.565668          16040 
   3946000   4513.9256      904385.89      7304.7828      895841.17      902738.22      914578.28      43421.509      2640.6047      3429.0336      9358.2863      24068.696      33426.982      121018.29      39.504431      39.504431      77.546001          16040 
   3947000   4490.3283      897209.26      7312.5884      888047.36      891172.87      912407.55      48747.316     -5054.8495      1203.8192      9309.3641      23978.435      33287.799      121265.18      39.531277      39.531277      77.598698          16040 
   3948000   4493.3602      902213.34      7320.3926      896415.87      892022.21      918201.94      44307.02      -803.88071      4864.5542      9315.6499      24035.549      33351.199      121152.31      39.519008      39.519008      77.574616          16040 
   3949000   4538.294       902954.42      7328.2159      897472.92      893385.7       918004.63      41814.869      613.1082       2357.7071      9408.8068      24010.647      33419.454      121030.61      39.505771      39.505771      77.548632          16040 
   3950000   4501.1533      897063.67      7336.035       891137.28      891515.8       908537.94      42289.954     -5679.0627      416.64212      9331.8066      24020.537      33352.344      121150.01      39.518758      39.518758      77.574124          16040 
   3951000   4500.5759      895489.73      7343.8523      885631.08      885823.39      915014.71      47395.634      3277.5702      3036.8603      9330.6095      23938.177      33268.786      121297.85      39.534826      39.534826      77.605665          16040 
   3952000   4492.7205      898571.37      7351.6629      888475.52      890513.49      916725.09      43015.922     -515.65959     -4981.5139      9314.3236      24021.754      33336.078      121177.25      39.52172       39.52172       77.579938          16040 
   3953000   4536.9737      904739.82      7359.48        898773.97      899026.33      916419.16      52301.018     -3769.2493      1000.9996      9406.0697      24064.588      33470.657      120938.05      39.495697      39.495697      77.528857          16040 
   3954000   4463.9082      908355.79      7367.3084      899065.87      902505.74      923495.77      44425.659     -6364.0004      401.83881      9254.59        24170.159      33424.749      121018.76      39.504482      39.504482      77.546101          16040 
   3955000   4502.808       900126.27      7375.1308      891627.29      891759.98      916991.56      52723.314     -636.51606     -2789.7493      9335.2371      23972.04       33307.277      121227.5       39.527181      39.527181      77.590659          16040 
   3956000   4478.9139      894940.54      7382.9416      887292.33      889057.41      908471.89      44580.923      550.94905      2176.6316      9285.6997      24009.598      33295.298      121248.78      39.529495      39.529495      77.5952            16040 
   3957000   4474.0414      899924.62      7390.7515      895357.56      892714.16      911702.15      45585.205      2084.9976     -3382.6227      9275.5981      23991.551      33267.149      121298.4       39.534886      39.534886      77.605783          16040 
   3958000   4515.7827      906396.77      7398.5558      896766.3       895882.66      926541.35      47065.27      -3277.0082      4180.8581      9362.1363      24061.634      33423.77       121019.32      39.504542      39.504542      77.546219          16040 
   3959000   4477.992       902862.34      7406.3627      891268.92      896980.16      920337.94      44402.786     -868.99203      6334.0297      9283.7885      24113.57       33397.359      121065.43      39.509559      39.509559      77.556067          16040 
   3960000   4475.0544      899433.71      7414.1841      892856.85      891562.65      913881.62      38071.336      1995.4168     -6802.3635      9277.6984      24059.497      33337.195      121172.08      39.521158      39.521158      77.578835          16040 
   3961000   4507.3885      897954.61      7422.0045      887957.91      890402.31      915503.62      43079.192      635.83551      2847.4314      9344.7335      23986.861      33331.595      121181.37      39.522167      39.522167      77.580816          16040 
   3962000   4508.8009      911528.11      7429.835       904129.79      900330.42      930124.12      49528.813     -2913.1954      36.102374      9347.6618      24122.981      33470.643      120931.4       39.494973      39.494973      77.527435          16040 
   3963000   4508.5431      899925.02      7437.6392      892035.87      888319.38      919419.82      46807.054      3987.8955     -3802.3082      9347.1273      24001.39       33348.518      121147.72      39.518509      39.518509      77.573636          16040 
   3964000   4520.4879      901650.58      7445.4445      893744.74      892237.68      918969.31      47062.397      3583.4082      1164.8676      9371.8912      24021.988      33393.88       121065.91      39.509611      39.509611      77.55617           16040 
   3965000   4492.0116      900330.37      7453.2502      893687.5       890046.63      917256.99      43800.516      1748.8393      2682.6516      9312.8541      24020.503      33333.357      121172.64      39.521218      39.521218      77.578954          16040 
   3966000   4484.9146      897384.53      7461.0559      890989.7       890493.73      910670.15      50597.267      1832.4611     -4141.9756      9298.1405      23988.616      33286.756      121255.35      39.530208      39.530208      77.596601          16040 
   3967000   4483.5164      907191.86      7468.8692      900912.17      896817.91      923845.5       44289.879     -561.49258     -4348.1638      9295.2418      24146.888      33442.129      120978.87      39.50014       39.50014       77.537578          16040 
   3968000   4503.8162      908614.83      7476.6912      898101.23      898780.61      928962.65      43706.51      -4843.2016      824.98665      9337.3273      24164.979      33502.307      120871.7       39.488473      39.488473      77.514676          16040 
   3969000   4484.9737      900673.89      7484.5175      895059.57      888291.25      918670.84      42708.147     -115.2147       3473.0737      9298.263       24041.118      33339.381      121160.33      39.51988       39.51988       77.576328          16040 
   3970000   4522.6204      897447.48      7492.3369      884377.12      892676.88      915288.44      46000.85      -318.64971     -1766.5096      9376.3122      23949.681      33325.993      121181.46      39.522177      39.522177      77.580837          16040 
   3971000   4546.342       901535.63      7500.1434      891803.45      896508.58      916294.86      49472.244      508.50959     -2357.7211      9425.492       23929.651      33355.143      121128.91      39.516464      39.516464      77.569621          16040 
   3972000   4503.2603      892752.56      7507.9476      884413.87      879750.04      914093.77      43722.785      2995.5503     -2812.5256      9336.1748      23897.923      33234.098      121343.53      39.539789      39.539789      77.615408          16040 
   3973000   4510.7725      898869.05      7515.7434      890557.74      890675.28      915374.13      45111.178     -237.10735     -5249.5615      9351.7491      24007.261      33359.01       121120.26      39.515523      39.515523      77.567775          16040 
   3974000   4514.9426      903759.77      7523.5509      894540.52      896849.84      919888.95      43261.448      1656.9019     -3726.8242      9360.3946      24056.598      33416.992      121017.42      39.504336      39.504336      77.545813          16040 
   3975000   4502.3712      898887.12      7531.3688      891761.17      894208.45      910691.74      44661.378      3749.4247     -2236.4362      9334.3315      24020.402      33354.733      121127.05      39.516261      39.516261      77.569223          16040 
   3976000   4489.8487      898024.27      7539.1811      890834.8       888107.06      915130.95      50420.917      662.47239     -722.68369      9308.37        23985.826      33294.196      121233.63      39.527848      39.527848      77.591968          16040 
   3977000   4495.7573      897707.6       7546.9916      890415.38      886607.59      916099.83      45218.728      1677.3179     -403.35428      9320.6197      23970.714      33291.333      121238.1       39.528334      39.528334      77.592922          16040 
   3978000   4461.9106      901180.07      7554.81        890249.87      893650.71      919639.63      46994.95       2426.6014     -3539.0256      9250.4485      24101.109      33351.557      121129.74      39.516553      39.516553      77.569797          16040 
   3979000   4466.5319      905927.02      7562.6236      898983.29      899637.48      919160.29      48641.083     -2361.9124      2888.2089      9260.0294      24156.425      33416.454      121014.05      39.503969      39.503969      77.545094          16040 
   3980000   4467.1026      905372.81      7570.4585      897131.89      898511.57      920474.97      49981.019     -4097.0234     -697.79601      9261.2126      24167.81       33429.022      120991.66      39.501533      39.501533      77.540312          16040 
   3981000   4471.9114      896430.77      7578.2767      886676.94      885884.33      916731.02      44037.677     -1018.3082     -4730.5821      9271.1822      24009.633      33280.815      121255.48      39.530223      39.530223      77.59663           16040 
   3982000   4486.0491      899078.57      7586.0811      894356.75      888096.13      914782.85      41702.402      9.2965342      5971.443       9300.4925      24069.947      33370.439      121094.22      39.51269       39.51269       77.562214          16040 
   3983000   4479.6964      896683.4       7593.8865      890133.03      895157.67      904759.49      49091.495      3407.0166     -307.71157      9287.3222      24009.645      33296.967      121224.69      39.526877      39.526877      77.590061          16040 
   3984000   4469.361       892328.3       7601.6984      880081.67      885107.74      911795.5       41627.414      1216.6242     -2972.9552      9265.8948      23965.202      33231.097      121342.12      39.539636      39.539636      77.615107          16040 
   3985000   4504.3118      896959.87      7609.5048      886938.52      887914.39      916026.69      41187.188      3119.2906      2007.0924      9338.3549      23963.958      33302.313      121214.46      39.525764      39.525764      77.587878          16040 
   3986000   4508.761       910698.7       7617.3281      905338.06      903475.23      923282.81      38902.786     -7089.3825      716.3977       9347.5789      24119.771      33467.35       120920.45      39.493782      39.493782      77.525097          16040 
   3987000   4480.9093      904759.26      7625.1575      894721.34      897106.44      922450.01      44543.164     -1381.4486     -2071.8443      9289.8367      24098.391      33388.228      121060.03      39.508972      39.508972      77.554914          16040 
   3988000   4522.4133      900201.47      7632.979       893809.97      887049.62      919744.84      44710.661      1027.6397     -3585.7067      9375.8829      23976.375      33352.258      121122         39.515712      39.515712      77.568146          16040 
   3989000   4509.3499      899094.74      7640.7865      886231.45      891780.99      919271.79      46516.802     -700.84534      3499.4233      9348.7999      23963.015      33311.815      121193.47      39.523483      39.523483      77.5834            16040 
   3990000   4559.5063      886729.35      7648.5941      874693.92      883541.77      901952.38      46375.638     -292.05815      3506.4961      9452.7843      23752.479      33205.264      121381.04      39.543862      39.543862      77.623403          16040 
   3991000   4476.599       901871.07      7656.4034      892092.77      893915.06      919605.37      52517.155      5116.9738     -2305.1588      9280.9006      24061.117      33342.018      121135.59      39.51719       39.51719       77.571046          16040 
   3992000   4498.1065      897165.58      7664.2123      886594.56      889509.36      915392.83      46859.53      -8805.2682     -3138.6656      9325.4901      23959.084      33284.574      121238.48      39.528375      39.528375      77.593001          16040 
   3993000   4513.6596      898878.73      7672.0334      891796.44      892567.4       912272.35      49392.035      2803.9174      568.98013      9357.7347      23991.681      33349.415      121121.54      39.515662      39.515662      77.568047          16040 
   3994000   4511.7224      902841.21      7679.8571      891155.84      897252.14      920115.64      40684.255     -2389.6752     -8313.6913      9353.7186      24037.287      33391.006      121047.86      39.507648      39.507648      77.552315          16040 
   3995000   4486.6816      910026.93      7687.6897      897998.29      902815.21      929267.27      43540.433     -171.83883     -3579.6439      9301.8038      24154.874      33456.678      120930.67      39.494894      39.494894      77.52728           16040 
   3996000   4517.2169      905406.9       7695.4944      896961.76      901648.72      917610.22      45709.119      9169.3726     -1163.7596      9365.1097      24065.504      33430.614      120975.33      39.499755      39.499755      77.536822          16040 
   3997000   4475.6036      898433.95      7703.3002      893696.02      888358.01      913247.81      51006.525      81.380115      46.016252      9278.837       24026.123      33304.96       121198.02      39.523977      39.523977      77.584369          16040 
   3998000   4503.9195      906199.66      7711.1027      901366.96      895787.5       921444.53      46621.705      541.03877     -395.01794      9337.5415      24081.623      33419.164      120993.85      39.501771      39.501771      77.540779          16040 
   3999000   4515.211       896169.52      7718.9095      889764.95      884682.47      914061.15      45715.424      1974.4208      3769.3171      9360.9511      23917.468      33278.419      121243.97      39.528972      39.528972      77.594174          16040 
   4000000   4460.8522      894944.27      7726.7189      892361.98      885064.61      907406.21      45722.674      1779.6738     -1173.2162      9248.2542      23954.693      33202.947      121376.7       39.543391      39.543391      77.622479          16040 
Loop time of 7726.72 on 8 procs for 1000000 steps with 16040 atoms

Performance: 5.591 ns/day, 4.293 hours/ns, 129.421 timesteps/s
60.6% CPU use with 1 MPI tasks x 8 OpenMP threads

MPI task timing breakdown:
Section |  min time  |  avg time  |  max time  |%varavg| %total
---------------------------------------------------------------
Pair    | 7449.9     | 7449.9     | 7449.9     |   0.0 | 96.42
Neigh   | 13.574     | 13.574     | 13.574     |   0.0 |  0.18
Comm    | 39.02      | 39.02      | 39.02      |   0.0 |  0.50
Output  | 1.2845     | 1.2845     | 1.2845     |   0.0 |  0.02
Modify  | 199.2      | 199.2      | 199.2      |   0.0 |  2.58
Other   |            | 23.7       |            |       |  0.31

Nlocal:          16040 ave       16040 max       16040 min
Histogram: 1 0 0 0 0 0 0 0 0 0
Nghost:          15559 ave       15559 max       15559 min
Histogram: 1 0 0 0 0 0 0 0 0 0
Neighs:              0 ave           0 max           0 min
Histogram: 1 0 0 0 0 0 0 0 0 0
FullNghs:  1.89422e+06 ave 1.89422e+06 max 1.89422e+06 min
Histogram: 1 0 0 0 0 0 0 0 0 0

Total # of neighbors = 1894216
Ave neighs/atom = 118.09327
Neighbor list builds = 34661
Dangerous builds = 0
Total wall time: 8:19:10
