
atom_style atomic
units metal
boundary p p p
#atom_modify sort 0 0.0
newton on

read_data data.lammps
Reading data file ...
  orthogonal box = (0 0 0) to (43.790145 43.790145 87.58029)
  1 by 1 by 1 MPI processor grid
  reading atoms ...
  16040 atoms
  read_data CPU = 0.030 seconds
# replicate 10 10 20

### interactions

pair_style flare
pair_coeff * * lmp.flare
Reading potential file lmp.flare with DATE: Thu

# compute unc all flare/std/atom L_inv_lmp.flare sparse_desc_lmp.flare
# compute MaxUnc all reduce max c_unc

mass 1 12.011000
mass 2 28.085000

thermo_style custom step temp press cpu pxx pyy pzz pxy pxz pyz ke pe etotal vol lx ly lz atoms    #c_MaxUnc
thermo 1000
timestep 0.0005
restart 100000 restart_*.dat

#################### Equilibrate at P and T_es ##############################
velocity all create $T 41928459 rot yes dist gaussian
velocity all create 3400 41928459 rot yes dist gaussian
fix mom all momentum 1000 linear 1 1 1 angular

fix 1 all npt temp $T $T $(100.0*dt) iso $P $P $(1000.0*dt)
fix 1 all npt temp 3400 $T $(100.0*dt) iso $P $P $(1000.0*dt)
fix 1 all npt temp 3400 3400 $(100.0*dt) iso $P $P $(1000.0*dt)
fix 1 all npt temp 3400 3400 0.050000000000000002776 iso $P $P $(1000.0*dt)
fix 1 all npt temp 3400 3400 0.050000000000000002776 iso 100000 $P $(1000.0*dt)
fix 1 all npt temp 3400 3400 0.050000000000000002776 iso 100000 100000 $(1000.0*dt)
fix 1 all npt temp 3400 3400 0.050000000000000002776 iso 100000 100000 0.5
dump 1 all custom 1000 1equil.bin id type x y z vx vy vz
run   10000 # report performance
Neighbor list info ...
  update every 1 steps, delay 10 steps, check yes
  max neighbors/atom: 2000, page size: 100000
  master list distance cutoff = 6
  ghost atom cutoff = 6
  binsize = 6, bins = 8 8 15
  1 neighbor lists, perpetual/occasional/extra = 1 0 0
  (1) pair flare/kk, perpetual
      attributes: full, newton on, kokkos_device
      pair build: full/bin/kk/device
      stencil: full/bin/3d
      bin: kk/device
Per MPI rank memory allocation (min/avg/max) = 16.04 | 16.04 | 16.04 Mbytes
   Step          Temp          Press           CPU            Pxx            Pyy            Pzz            Pxy            Pxz            Pyz           KinEng         PotEng         TotEng         Volume           Lx             Ly             Lz          Atoms   
         0   3400           79264.947      0              79901.728      78805.53       79087.584      1130.3329     -219.77229     -813.23023      7048.8918     -2985.8921      4062.9997      167941.93      43.790145      43.790145      87.58029           16040 
      1000   3344.6333      97318.825      6.7699102      96216.944      98292.742      97446.79      -770.12571      113.96774      2086.293       6934.1053      4472.295       11406.4        171488.51      44.096252      44.096252      88.192505          16040 
      2000   3415.174       97134.111      13.473975      96150.827      97121.031      98130.477     -1477.5838      687.81337     -614.35677      7080.3505      4539.4012      11619.752      171591.23      44.105055      44.105055      88.210109          16040 
      3000   3366.2306      101195.98      20.178912      98778.447      102617.76      102191.75      234.93948      837.49494     -1286.7721      6978.881       4279.9933      11258.874      171076.23      44.060886      44.060886      88.121771          16040 
      4000   3447.0993      96781.006      26.885225      95942.72       97422.834      96977.463     -1966.9072      2685.8835     -407.51419      7146.5382      4355.4919      11502.03       171567.17      44.102993      44.102993      88.205986          16040 
      5000   3390.8         99725.914      33.589641      98696.991      99758.354      100722.4       2792.1955     -312.83111     -574.881        7029.8184      4322.4424      11352.261      171270.79      44.077583      44.077583      88.155166          16040 
      6000   3383.5834      99574.707      40.297012      100556.37      99245.875      98921.872     -662.61138     -2643.8219     -515.60784      7014.8568      4321.0862      11335.943      171300.68      44.080147      44.080147      88.160294          16040 
      7000   3355.5948      99305.576      47.002627      98081.413      100405.59      99429.722     -504.32733     -144.45761     -1630.8936      6956.8308      4460.977       11417.808      171444.02      44.092438      44.092438      88.184876          16040 
      8000   3358.0958      102362.2       53.709314      101811.96      102370.91      102903.73     -2054.9537      935.12683     -483.74072      6962.0158      4334.3573      11296.373      171105.62      44.063409      44.063409      88.126818          16040 
      9000   3409.5905      101639.89      60.412829      100578.81      102441.39      101899.48     -745.33997     -23.665797      2094.9852      7068.7749      4364.1741      11432.949      171155.82      44.067718      44.067718      88.135435          16040 
     10000   3414.7861      100884.39      67.110938      101353.36      100906.53      100393.28     -1161.7778     -1076.8637      51.308482      7079.5464      4305.2051      11384.751      171253.29      44.076082      44.076082      88.152163          16040 
Loop time of 67.111 on 8 procs for 10000 steps with 16040 atoms

Performance: 6.437 ns/day, 3.728 hours/ns, 149.007 timesteps/s
60.7% CPU use with 1 MPI tasks x 8 OpenMP threads

MPI task timing breakdown:
Section |  min time  |  avg time  |  max time  |%varavg| %total
---------------------------------------------------------------
Pair    | 64.071     | 64.071     | 64.071     |   0.0 | 95.47
Neigh   | 0.091056   | 0.091056   | 0.091056   |   0.0 |  0.14
Comm    | 0.36823    | 0.36823    | 0.36823    |   0.0 |  0.55
Output  | 0.012517   | 0.012517   | 0.012517   |   0.0 |  0.02
Modify  | 2.3094     | 2.3094     | 2.3094     |   0.0 |  3.44
Other   |            | 0.2584     |            |       |  0.38

Nlocal:          16040 ave       16040 max       16040 min
Histogram: 1 0 0 0 0 0 0 0 0 0
Nghost:          13665 ave       13665 max       13665 min
Histogram: 1 0 0 0 0 0 0 0 0 0
Neighs:              0 ave           0 max           0 min
Histogram: 1 0 0 0 0 0 0 0 0 0
FullNghs:  1.37928e+06 ave 1.37928e+06 max 1.37928e+06 min
Histogram: 1 0 0 0 0 0 0 0 0 0

Total # of neighbors = 1379278
Ave neighs/atom = 85.9899
Neighbor list builds = 299
Dangerous builds = 0
run  990000
Per MPI rank memory allocation (min/avg/max) = 16.11 | 16.11 | 16.11 Mbytes
   Step          Temp          Press           CPU            Pxx            Pyy            Pzz            Pxy            Pxz            Pyz           KinEng         PotEng         TotEng         Volume           Lx             Ly             Lz          Atoms   
     10000   3414.7861      100884.39      0              101353.36      100906.53      100393.28     -1161.7778     -1076.8637      51.308482      7079.5464      4305.2051      11384.751      171253.29      44.076082      44.076082      88.152163          16040 
     11000   3380.4802      100556.55      6.7069084      101118.7       100225.11      100325.85      213.45028     -104.24431     -540.5484       7008.4233      4332.7421      11341.165      171187.07      44.070399      44.070399      88.140799          16040 
     12000   3423.6416      99220.135      13.41486       100085.49      99292.216      98282.703      1567.8411      564.69336     -828.39862      7097.9056      4312.9641      11410.87       171259.36      44.076602      44.076602      88.153204          16040 
     13000   3406.5439      103239.01      20.124298      102264.37      102960.11      104492.56      1109.8174     -1583.1224     -612.51299      7062.4586      4307.5575      11370.016      170944.96      44.049614      44.049614      88.099227          16040 
     14000   3391.7024      105164.95      26.833835      105420.69      105175.5       104898.65     -1203.4623     -1490.9647      1211.3621      7031.6891      4412.1503      11443.839      170920.42      44.047505      44.047505      88.09501           16040 
     15000   3397.7847      101616.21      33.547784      101897.95      102170.23      100780.45     -761.65304      2045.1246      1590.4067      7044.299       4353.9863      11398.285      171079.49      44.061166      44.061166      88.122332          16040 
     16000   3446.586       100208.85      40.262596      99856.57       99460.083      101309.89      331.41321     -1116.3779     -478.81249      7145.474       4265.705       11411.179      171285.69      44.078861      44.078861      88.157722          16040 
     17000   3393.0732      101376.84      46.976381      102336.47      101521.41      100272.65     -60.737679     -103.09052      428.95075      7034.5311      4275.0851      11309.616      171205.65      44.071994      44.071994      88.143987          16040 
     18000   3435.514       100796.96      53.68268       99879.62       101397.71      101113.55     -1532.6295      1623.5504     -480.94126      7122.5195      4243.1599      11365.679      171136.48      44.066058      44.066058      88.132116          16040 
     19000   3430.6202      99661.415      60.401867      99201.798      100773.84      99008.609     -1104.2464      117.28387     -1213.8208      7112.3737      4362.8946      11475.268      171226.53      44.073785      44.073785      88.147571          16040 
     20000   3403.1612      108788.23      67.120787      109878.18      107420.83      109065.68      525.78691     -412.95195     -268.04651      7055.4456      4333.9278      11389.373      170479.83      44.009625      44.009625      88.01925           16040 
     21000   3443.2366      104556.46      73.84233       106502.53      102804.17      104362.67      78.04996       180.33925      785.27526      7138.5301      4405.3369      11543.867      171052.42      44.058842      44.058842      88.117683          16040 
     22000   3411.2853      99409.075      80.560044      98831.995      98861.874      100533.36      593.59323     -918.55406     -47.088346      7072.2885      4328.5396      11400.828      171214.43      44.072747      44.072747      88.145495          16040 
     23000   3360.4831      101829.88      87.279415      102136.58      102283.69      101069.37      490.35931     -789.76986     -1634.2043      6966.9651      4353.312       11320.277      171059.69      44.059466      44.059466      88.118931          16040 
     24000   3429.5597      99499.936      93.997505      99072.601      100543.54      98883.663     -474.02278     -900.18106      571.87279      7110.1751      4340.1039      11450.279      171249.25      44.075735      44.075735      88.15147           16040 
     25000   3405.0313      100656.59      100.71679      100094.12      101754.74      100120.92     -1838.8957      317.12525     -519.89526      7059.3228      4222.0357      11281.358      171062.67      44.059722      44.059722      88.119444          16040 
     26000   3406.1662      99378.84       107.43573      99896.053      98655.481      99584.985      950.57099     -1578.0775      78.799272      7061.6756      4271.4021      11333.078      171140.82      44.06643       44.06643       88.132861          16040 
     27000   3391.9887      98056.928      114.15572      97834.83       99118.405      97217.551      578.79337      63.921316     -442.43137      7032.2827      4329.5396      11361.822      171279.28      44.078311      44.078311      88.156621          16040 
     28000   3377.7046      101376.43      120.87565      101168.87      101677.38      101283.04      1441.5959      2106.0853      1567.0717      7002.6689      4325.7964      11328.465      171073.49      44.060651      44.060651      88.121302          16040 
     29000   3438.6733      101459.79      127.59469      102270.93      100258.05      101850.41      1262.7298     -298.21385      1114.59        7129.0694      4328.4832      11457.553      171127.6       44.065295      44.065295      88.130591          16040 
     30000   3382.3611      102596.54      134.31499      103028.8       102019.86      102740.97      470.77071     -807.04286      859.07939      7012.3227      4283.6776      11296          170867.6       44.042968      44.042968      88.085936          16040 
     31000   3434.3461      102305.63      141.03369      102360.97      101078.11      103477.81      1138.763      -714.69121     -210.23187      7120.0982      4265.3677      11385.466      171063.24      44.059771      44.059771      88.119542          16040 
     32000   3409.8741      102280.03      147.75261      102781.85      101134.98      102923.25     -407.98043      2480.9526     -928.63165      7069.3627      4393.1816      11462.544      171105.59      44.063406      44.063406      88.126813          16040 
     33000   3398.9738      102033.85      154.47163      101330.32      102065.26      102705.95      280.35129     -252.52164      5.2277496      7046.7642      4286.6134      11333.378      171058.22      44.05934       44.05934       88.118679          16040 
     34000   3395.1014      101874.2       161.18941      100332.95      103412.07      101877.58      869.49956     -183.48831     -103.09822      7038.736       4285.3014      11324.037      171106.26      44.063464      44.063464      88.126928          16040 
     35000   3389.6159      97633.552      167.90779      97425.271      97309.537      98165.849      990.9057      -2841.9437     -340.50263      7027.3635      4290.5112      11317.875      171419.28      44.090317      44.090317      88.180634          16040 
     36000   3371.3419      96891.305      174.62717      98561.974      95825.519      96286.422     -944.50602     -1214.9123     -1030.4347      6989.4778      4192.6933      11182.171      171276.52      44.078074      44.078074      88.156148          16040 
     37000   3388.5145      97724.242      181.34653      99062.221      97397.494      96713.012     -1234.9799      1756.0005      1894.6139      7025.0801      4229.3696      11254.45       171350.91      44.084455      44.084455      88.16891           16040 
     38000   3376.1135      98420.655      188.06581      98246.171      97893.172      99122.622      2080.7419     -1892.4644     -1403.5116      6999.3702      4223.8692      11223.239      171189.43      44.070602      44.070602      88.141204          16040 
     39000   3393.2092      95928.38       194.78736      96590.546      94761.357      96433.237     -1833.4057     -3093.4138      502.9009       7034.813       4266.0194      11300.832      171434.1       44.091588      44.091588      88.183175          16040 
     40000   3414.7372      97381.618      201.50752      97002.845      98349.561      96792.447      699.79079      1918.0315     -3276.4099      7079.4451      4243.371       11322.816      171362.88      44.085481      44.085481      88.170963          16040 
     41000   3408.4398      100235.01      208.22642      99285.388      102122.7       99296.944      3429.0391      1986.0187      453.54112      7066.3893      4236.5848      11302.974      171215.93      44.072876      44.072876      88.145752          16040 
     42000   3368.903       99329.319      214.94563      100108.71      99806.553      98072.696      1517.0687     -468.91898     -1743.5778      6984.4214      4297.0823      11281.504      171256.13      44.076325      44.076325      88.152651          16040 
     43000   3390.748       100084.57      221.66411      100862.3       98878.511      100512.88      2967.9425     -945.776       -1634.2903      7029.7106      4200.2959      11230.007      171137.43      44.066139      44.066139      88.132279          16040 
     44000   3424.0159      97433.432      228.38268      97677.463      97936.23       96686.603     -773.5351      -37.75985       53.490912      7098.6816      4223.2973      11321.979      171379.82      44.086934      44.086934      88.173868          16040 
     45000   3372.3598      95898.57       235.10294      97242.892      96214.292      94238.525     -532.1154      -1207.4672     -247.17874      6991.5881      4149.7277      11141.316      171368.7       44.085981      44.085981      88.171961          16040 
     46000   3385.4308      98247.195      241.82027      97370.551      98742.783      98628.25       2050.8144     -507.48015     -613.1695       7018.687       4250.1114      11268.798      171324.04      44.08215       44.08215       88.1643            16040 
     47000   3371.8752      97259.968      248.54213      96297.979      99515.207      95966.719      1016.4629     -1026.2779      2498.439       6990.5833      4235.7154      11226.299      171363.91      44.08557       44.08557       88.171139          16040 
     48000   3368.5027      97307.663      255.26144      97362.596      96146.096      98414.297     -666.01947      2613.8542      235.55481      6983.5915      4285.5668      11269.158      171293.65      44.079544      44.079544      88.159088          16040 
     49000   3362.9903      98784.222      261.97949      99098.533      98751.626      98502.506     -1022.9253     -1392.1558     -838.14292      6972.1631      4231.5349      11203.698      171188.93      44.070559      44.070559      88.141119          16040 
     50000   3385.2318      98679.584      268.69003      99488.534      97458.555      99091.662      1119.7607     -612.41089      163.05748      7018.2743      4263.8514      11282.126      171249.64      44.075768      44.075768      88.151536          16040 
     51000   3405.768       100595.59      275.41263      100225.52      101191.34      100369.89     -139.80657      932.32312     -4047.1924      7060.8501      4233.1703      11294.02       171002.93      44.054592      44.054592      88.109184          16040 
     52000   3340.6115      99640.335      282.13591      100210.5       98781.295      99929.212      419.59412     -869.475       -1273.5401      6925.7673      4300.6971      11226.464      171089.31      44.062009      44.062009      88.124017          16040 
     53000   3398.1064      98484.685      288.85691      98010.208      98144.087      99299.76      -943.23417     -2331.1727     -3029.4742      7044.966       4250.9338      11295.9        171271.85      44.077674      44.077674      88.155347          16040 
     54000   3428.2642      101317.67      295.57831      102994.16      101657.4       99301.436      891.86054     -1486.5316      858.2676       7107.4893      4163.365       11270.854      171039.11      44.057699      44.057699      88.115398          16040 
     55000   3408.1963      100891.51      302.29766      100639.98      101211.92      100822.63     -1517.9553      1836.3009      2784.8357      7065.8843      4288.6003      11354.485      171207.17      44.072124      44.072124      88.144249          16040 
     56000   3434.2222      101166.79      309.01757      101103.97      101273.95      101122.46      2359.6482      102.86676     -55.586769      7119.8414      4208.299       11328.14       171099.57      44.06289       44.06289       88.125779          16040 
     57000   3407.4528      101244.02      315.73864      100874.68      101553.22      101304.17      934.59494     -721.7085       1385.6798      7064.3429      4102.3653      11166.708      170969.77      44.051744      44.051744      88.103488          16040 
     58000   3430.1633      98475.872      322.45832      98346.177      97639.38       99442.06      -643.29388     -475.41966      614.11252      7111.4264      4181.6854      11293.112      171256         44.076314      44.076314      88.152629          16040 
     59000   3395.498       101923.12      329.17723      101880.07      101220.71      102668.59     -795.48252     -70.819553      50.323138      7039.5582      4201.0769      11240.635      170948.51      44.049919      44.049919      88.099837          16040 
     60000   3368.9773      98388.274      335.89809      100537.65      96539.056      98088.118      1233.9331     -914.68577     -3029.9518      6984.5754      4249.6806      11234.256      171126.33      44.065187      44.065187      88.130374          16040 
     61000   3417.2371      99056.578      342.6191       99302.07       97852.302      100015.36     -1398.354      -60.040467     -169.44824      7084.6277      4194.3509      11278.979      171136.26      44.066039      44.066039      88.132078          16040 
     62000   3389.2602      101889.55      349.33936      103208.73      101040.92      101419         246.64788     -178.00185     -242.89213      7026.6261      4144.7996      11171.426      170877.93      44.043855      44.043855      88.08771           16040 
     63000   3404.5982      100845.27      356.06267      100707.45      102032.72      99795.654     -1198.8719      1173.4737      1718.4996      7058.4248      4181.339       11239.764      171001.07      44.054432      44.054432      88.108865          16040 
     64000   3379.0076      97653.838      362.78214      96917.952      98704.062      97339.499     -433.89255      224.45741     -446.70149      7005.3703      4246.403       11251.773      171224.37      44.0736        44.0736        88.1472            16040 
     65000   3395.5287      98066.79       369.50389      99813.506      97970.131      96416.732      888.728       -487.19188     -398.44351      7039.6218      4151.4416      11191.063      171141.51      44.066489      44.066489      88.132979          16040 
     66000   3397.8232      97697.83       376.22499      97940.112      97175.805      97977.573      1029.1138     -1187.5431     -1638.4094      7044.3789      4264.7326      11309.111      171302.96      44.080342      44.080342      88.160685          16040 
     67000   3378.8402      102683.03      382.94411      102828.95      102288.88      102931.27      350.93089      1587.0726      264.52411      7005.0232      4206.3084      11211.332      170959.36      44.05085       44.05085       88.1017            16040 
     68000   3447.1504      103007.37      389.66342      103918.34      102021.33      103082.44      509.71248     -798.50363      111.34135      7146.6441      4126.2768      11272.921      170854.12      44.041809      44.041809      88.083618          16040 
     69000   3399.2048      104913.4       396.38387      105904.75      104876.06      103959.41      180.67611     -496.10732      494.19696      7047.2432      4196.3631      11243.606      170689.52      44.027662      44.027662      88.055324          16040 
     70000   3423.16        102184.49      403.10247      103528.36      101430.3       101594.81      434.13977      712.30464     -1355.5862      7096.9072      4247.3608      11344.268      170899.99      44.04575       44.04575       88.0915            16040 
     71000   3400.9739      104992.32      409.82146      105842.69      105353.18      103781.1       1176.8591     -1820.8101      541.41343      7050.9109      4153.3608      11204.272      170624.12      44.022038      44.022038      88.044076          16040 
     72000   3407.9618      99451.635      416.54082      97830.354      100537.53      99987.024      408.06129     -871.80452     -51.138635      7065.3981      4240.273       11305.671      171289.29      44.07917       44.07917       88.15834           16040 
     73000   3390.8546      100716.06      423.25874      100106.96      101297.81      100743.41     -512.28242     -2752.4623     -573.18663      7029.9314      4218.9031      11248.835      171116.88      44.064376      44.064376      88.128751          16040 
     74000   3381.0513      99436.599      429.97529      100271.11      98750.323      99288.368      1110.9256     -130.8527       1063.8782      7009.6072      4145.9846      11155.592      171067.79      44.060161      44.060161      88.120322          16040 
     75000   3408.7854      96255.983      436.69606      96582.552      96308.632      95876.765      952.45932     -2145.7672     -1339.9925      7067.1056      4193.2786      11260.384      171391.53      44.087938      44.087938      88.175875          16040 
     76000   3372.0662      98251.56       443.41379      98541.032      97013.607      99200.04       2270.7771      1409.3022      1561.0779      6990.9793      4150.2507      11141.23       171116.22      44.064319      44.064319      88.128638          16040 
     77000   3370.39        99401.115      450.13288      100809.36      97168.253      100225.73      377.15361     -1655.0868     -274.05642      6987.5043      4138.7909      11126.295      171038.19      44.05762       44.05762       88.115239          16040 
     78000   3425.2088      99086.547      456.85052      99593.926      97893.716      99771.999      424.41653      1356.0196     -56.523327      7101.1547      4205.0308      11306.186      171203.54      44.071813      44.071813      88.143626          16040 
     79000   3391.4117      100029.52      463.56708      99970.101      100179.82      99938.632     -2624.9372     -191.32688      599.04035      7031.0865      4195.1677      11226.254      171010.26      44.055222      44.055222      88.110444          16040 
     80000   3434.0842      100385.66      470.28255      99690.187      100126.08      101340.71     -842.5484       36.758532      855.80465      7119.5552      4199.1699      11318.725      171018.41      44.055921      44.055921      88.111842          16040 
     81000   3405.482       99203.739      476.9978       98629.362      98196.28       100785.57      1485.196      -1126.9147     -1974.9076      7060.2572      4200.8906      11261.148      171056.58      44.059199      44.059199      88.118397          16040 
     82000   3408.3237      97907.403      483.70826      99597.306      95907.678      98217.225     -18.175411      751.37958     -2528.541       7066.1486      4081.9539      11148.102      171015.15      44.055642      44.055642      88.111284          16040 
     83000   3403.8772      94956.822      490.42776      95591.485      95312.516      93966.465      23.435769     -938.60918     -498.20988      7056.93        4177.8127      11234.743      171434.45      44.091618      44.091618      88.183236          16040 
     84000   3392.6916      92886.082      497.14651      93679.886      91921.114      93057.245     -1053.8333     -1263.0875     -1410.9238      7033.7399      4081.0921      11114.832      171501.02      44.097324      44.097324      88.194648          16040 
     85000   3397.9423      96378.663      503.86597      97508.859      94461.412      97165.718     -1456.8596     -841.09622     -1576.6472      7044.6258      4209.5085      11254.134      171339.97      44.083517      44.083517      88.167033          16040 
     86000   3369.0882      100801.49      510.58681      99039.538      102688.11      100676.83     -376.11798     -3098.751      -1485.667       6984.8053      4178.8524      11163.658      170918.79      44.047366      44.047366      88.094731          16040 
     87000   3395.4617      99955.431      517.30629      99488.801      99985.54       100391.95      604.80727      1090.0219      1262.3285      7039.4829      4185.791       11225.274      171093.13      44.062337      44.062337      88.124673          16040 
     88000   3399.828       100795.43      524.02727      100627.91      101668.48      100089.88      2409.8695     -243.07664      1537.797       7048.5351      4232.805       11281.34       170984.61      44.053019      44.053019      88.106039          16040 
     89000   3386.3222      101679.57      530.74636      102488.11      100880.22      101670.38      1884.1369      1197.2169      583.68823      7020.5349      4188.4964      11209.031      170897.35      44.045523      44.045523      88.091047          16040 
     90000   3382.9444      103521.25      537.46537      103342.21      103508.74      103712.79     -2184.0592      504.45179     -1726.2804      7013.532       4190.5222      11204.054      170723.84      44.030612      44.030612      88.061224          16040 
     91000   3445.8649      100224.82      544.18169      100497.47      100306.6       99870.381      122.15375      1290.2546      2943.9569      7143.9791      4174.7134      11318.692      171088.9       44.061973      44.061973      88.123947          16040 
     92000   3420.8432      99945.254      550.89794      100171.29      99901.55       99762.92      -44.184254     -717.70381      677.10278      7092.104       4203.3802      11295.484      171047.74      44.05844       44.05844       88.116879          16040 
     93000   3407.8365      104393.51      557.6148       104059.67      103706.11      105414.76     -1315.6811     -436.52417     -396.44676      7065.1384      4189.5021      11254.641      170749.39      44.032809      44.032809      88.065618          16040 
     94000   3423.8585      102570.09      564.33067      103229.83      101451.36      103029.08      344.34109     -532.47623     -1702.5203      7098.3553      4220.1725      11318.528      170788.5       44.03617       44.03617       88.07234           16040 
     95000   3429.5844      101276.66      571.0458       101050.95      100578.34      102200.68     -512.64295     -417.96717      1167.6898      7110.2264      4155.8978      11266.124      170873.02      44.043433      44.043433      88.086866          16040 
     96000   3414.6498      101431.51      577.76186      100588.82      101743.44      101962.28     -579.06989      292.02232     -135.24715      7079.2639      4159.0863      11238.35       170898.66      44.045636      44.045636      88.091272          16040 
     97000   3432.4062      105281.85      584.47601      105783.86      104798.01      105263.67      934.25283      1564.4693     -746.93633      7116.0763      4194.7391      11310.815      170623.32      44.021969      44.021969      88.043938          16040 
     98000   3419.4998      104092.19      591.19031      102142.14      105067.31      105067.12      164.08942      1880.8326      2105.3367      7089.3188      4227.1222      11316.441      170721.18      44.030384      44.030384      88.060767          16040 
     99000   3384.7603      102423.05      597.90723      102613.52      102483.41      102172.22     -517.21615      444.70363      2767.3854      7017.2969      4200.4443      11217.741      170851.73      44.041604      44.041604      88.083208          16040 
    100000   3384.375       102395.73      604.62918      102258.65      102634.47      102294.06      202.0443       799.15019      133.28616      7016.4979      4202.042       11218.54       170828.25      44.039586      44.039586      88.079172          16040 
    101000   3384.4026      100966.96      611.34064      102473.6       99337.202      101090.07      882.68113      331.86094      1397.0022      7016.5552      4246.3586      11262.914      170954.14      44.050402      44.050402      88.100803          16040 
    102000   3413.8457      103411.25      618.05563      103511.98      103733.69      102988.08     -856.30284     -1459.7347     -476.23292      7077.5968      4184.1447      11261.742      170792.53      44.036517      44.036517      88.073033          16040 
    103000   3403.8047      103343.84      624.77057      102293.79      103459.07      104278.67     -627.63879     -938.8644      -2272.0171      7056.7798      4184.4706      11241.25       170855.76      44.04195       44.04195       88.0839            16040 
    104000   3392.0194      102913.51      631.4835       102827.72      102693.12      103219.69     -520.95915     -622.07445     -1520.4512      7032.3464      4191.6424      11223.989      170898.95      44.045662      44.045662      88.091323          16040 
    105000   3403.6113      104598.42      638.19871      103307.37      106347.4       104140.48      530.65235     -890.95604     -2186.2894      7056.3787      4143.847       11200.226      170641.88      44.023565      44.023565      88.04713           16040 
    106000   3431.6384      100708.92      644.91222      99747.984      100043.35      102335.43     -1322.1547     -1400.2861     -1349.0225      7114.4847      4183.6634      11298.148      170980.83      44.052694      44.052694      88.105389          16040 
    107000   3446.3398      101538.5       651.62606      100473.26      102292.45      101849.78      1611.0171      1342.3079      1193.452       7144.9635      4038.3529      11183.316      170802.96      44.037413      44.037413      88.074826          16040 
    108000   3396.9309      101319.71      658.33808      102026.37      99574.241      102358.51      105.98708     -652.04109      1886.0154      7042.5288      4146.6904      11189.219      170809.98      44.038017      44.038017      88.076033          16040 
    109000   3413.8009      98975.52       665.05202      99052.25       99188.455      98685.855     -607.34858     -242.6743      -497.24577      7077.5039      4165.2458      11242.75       171097.89      44.062745      44.062745      88.125491          16040 
    110000   3435.4825      103032.24      671.76382      103125.21      102109.3       103862.22     -1181.7378     -839.22944     -1007.6451      7122.4541      4075.9978      11198.452      170836.09      44.04026       44.04026       88.08052           16040 
    111000   3397.9945      101416.34      678.47619      100997.13      101826.53      101425.37      1160.3661     -1144.4697      743.04921      7044.7341      4240.125       11284.859      171073.62      44.060662      44.060662      88.121323          16040 
    112000   3410.6534      99358.945      685.18794      100665.53      99004.089      98407.218     -691.70979     -145.55656     -716.27454      7070.9785      4098.4087      11169.387      171006.19      44.054872      44.054872      88.109745          16040 
    113000   3395.1614      96731.182      691.90032      96592.89       95801.312      97799.344      1401.9847      2102.7117      1649.5256      7038.8603      4149.5629      11188.423      171230.15      44.074096      44.074096      88.148192          16040 
    114000   3387.9079      95409.423      698.60482      95196.765      96083.76       94947.745      743.58511     -940.45998     -192.86211      7023.8223      4201.6188      11225.441      171432.29      44.091433      44.091433      88.182866          16040 
    115000   3376.1208      97842.235      705.32041      98347.568      96883.651      98295.487      226.80326     -1337.9727      2369.6144      6999.3853      4099.2115      11098.597      171067.05      44.060098      44.060098      88.120196          16040 
    116000   3393.2101      97156.166      712.03538      97653.905      96916.101      96898.493     -378.26317     -312.50109      2380.7964      7034.815       4155.4491      11190.264      171207.2       44.072127      44.072127      88.144254          16040 
    117000   3437.5515      97879.671      718.75027      98734.022      98168.365      96736.626      848.3613       391.90971      1033.4266      7126.7437      4171.2881      11298.032      171205.93      44.072018      44.072018      88.144036          16040 
    118000   3418.7469      101885.66      725.46492      101212.43      101598.12      102846.42     -706.33297      875.1945      -385.67858      7087.7579      4102.0089      11189.767      170847.32      44.041225      44.041225      88.082449          16040 
    119000   3439.3629      101913.07      732.17712      103061.79      101685.49      100991.93      2369.3901      858.1503      -509.594        7130.4991      4186.8857      11317.385      170903.02      44.046011      44.046011      88.092022          16040 
    120000   3381.6873      104651.16      738.89021      105402.14      103529.66      105021.69      273.13374      73.353574      478.79214      7010.9258      4151.5179      11162.444      170478.77      44.009534      44.009534      88.019067          16040 
    121000   3416.5891      100578.58      745.60463      99712.155      101502.53      100521.06      1807.1465     -1631.7036      1657.1995      7083.2844      4130.6011      11213.885      170853.19      44.04173       44.04173       88.08346           16040 
    122000   3390.9865      101321.67      752.319        101736.4       100300.37      101928.25     -952.50588      2183.0235     -3295.0873      7030.2049      4121.5681      11151.773      170853.7       44.041773      44.041773      88.083546          16040 
    123000   3402.8467      99682.378      759.0349       100518.07      100053.84      98475.233     -691.28866      1792.7631     -2201.8505      7054.7935      4202.9983      11257.792      171110.56      44.063833      44.063833      88.127666          16040 
    124000   3391.3902      101414.4       765.74914      101994.58      100782.67      101465.94      1814.8513      1503.5396     -1241.9045      7031.042       4103.1615      11134.204      170738.85      44.031902      44.031902      88.063805          16040 
    125000   3406.8197      99557.121      772.4631       98529.914      99559.571      100581.88      29.582212     -1054.9678      1534.9802      7063.0304      4167.3159      11230.346      171011.26      44.055307      44.055307      88.110615          16040 
    126000   3414.2425      98621.372      779.17637      98469.375      98554.651      98840.088     -1606.0113      69.385588      347.74373      7078.4194      4078.0667      11156.486      170951.12      44.050142      44.050142      88.100285          16040 
    127000   3393.5275      98932.81       785.89092      99334.338      99321.021      98143.07       1240.8425     -85.404972     -971.41124      7035.4731      4126.6904      11162.163      171059.33      44.059435      44.059435      88.118869          16040 
    128000   3478.2791      95543.704      792.60243      94946.94       95838.725      95845.446      774.29742     -307.05389     -1181.1945      7211.1803      4141.3559      11352.536      171327.9       44.082481      44.082481      88.164962          16040 
    129000   3385.013       97259.2        799.31661      96028.659      97806.477      97942.464     -683.30933      48.521835     -495.12477      7017.8207      4124.6543      11142.475      171264.79      44.077068      44.077068      88.154135          16040 
    130000   3376.7042      94280.391      806.0301       94781.558      94218.88       93840.736      1994.6204      1857.0456     -1629.9599      7000.5948      4106.4251      11107.02       171421.55      44.090511      44.090511      88.181023          16040 
    131000   3387.9451      99150.792      812.74313      98488.047      98536.365      100427.96     -985.96062     -1052.2456      663.89809      7023.8996      4129.0653      11152.965      171059.63      44.059461      44.059461      88.118922          16040 
    132000   3351.6016      100407.94      819.45704      100198.44      100127.51      100897.87      124.10645     -691.06412      614.89171      6948.5521      4086.6506      11035.203      170907.4       44.046387      44.046387      88.092774          16040 
    133000   3423.6299      99056.82       826.17045      98958.018      99772.279      98440.164      1384.9168     -1207.7217     -571.06829      7097.8814      4145.9929      11243.874      171085.9       44.061717      44.061717      88.123433          16040 
    134000   3425.8873      97337.842      832.8822       97112.204      97857.329      97043.992     -158.05291      689.14375      881.2114       7102.5615      4014.7256      11117.287      171096.37      44.062614      44.062614      88.125229          16040 
    135000   3421.9482      95709.948      839.59599      97458.705      95102.182      94568.956      259.7261      -1408.7314      11.766999      7094.3949      4125.8552      11220.25       171412.86      44.089767      44.089767      88.179533          16040 
    136000   3376.0743      97490.068      846.30788      98268.584      96507.023      97694.598      1979.9944      567.34514      836.11181      6999.289       4154.9823      11154.271      171314.98      44.081373      44.081373      88.162746          16040 
    137000   3388.1826      97251.843      853.01832      97187.775      97131.977      97435.777      42.991852     -365.52887     -1435.5169      7024.3919      4068.3117      11092.704      171148.2       44.067063      44.067063      88.134127          16040 
    138000   3388.6225      99589.569      859.72982      99496.191      98505.407      100767.11      699.00659      426.55481      985.54894      7025.3039      4166.2271      11191.531      171029.54      44.056877      44.056877      88.113754          16040 
    139000   3392.7919      100065.49      866.44072      98998.322      101699.35      99498.799      4.6757595      1872.2746     -1863.7817      7033.9479      4188.1585      11222.106      170910.34      44.046639      44.046639      88.093279          16040 
    140000   3426.3622      100496.9       873.14939      100823.97      101315.04      99351.684      1128.6486     -895.63156      1697.5476      7103.546       4179.2791      11282.825      171025.45      44.056526      44.056526      88.113053          16040 
    141000   3385.3681      100828.23      879.85335      101802.61      98811.404      101870.67      977.41187     -971.48733     -487.4909       7018.5568      4176.1426      11194.699      170922.44      44.047679      44.047679      88.095358          16040 
    142000   3427.5554      99406.295      886.5632       99239.039      99455.535      99524.313      1297.4584      918.05141     -246.798        7106.0198      4238.7761      11344.796      171178.51      44.069665      44.069665      88.139329          16040 
    143000   3391.9442      99883.712      893.27348      99330.548      99460.756      100859.83     -1149.913      -915.64783     -1462.4516      7032.1905      4211.1873      11243.378      171043.98      44.058117      44.058117      88.116234          16040 
    144000   3382.3397      100091.07      899.98522      99403.691      101902.31      98967.207      917.64337      432.05636     -1514.0975      7012.2785      4030.9663      11043.245      170912.23      44.046802      44.046802      88.093603          16040 
    145000   3423.7944      100291.24      906.69739      100457.07      98989.853      101426.8       931.22823     -211.86984      597.01194      7098.2223      4148.86        11247.082      170943.46      44.049485      44.049485      88.098969          16040 
    146000   3421.1404      100241.96      913.40675      102283.65      98712.616      99729.619     -830.60601     -601.74155      1273.5729      7092.7201      4065.6198      11158.34       170811.09      44.038112      44.038112      88.076224          16040 
    147000   3386.1564      101566.87      920.13203      102287.94      101138.69      101273.99      676.16638     -2424.3466     -1439.3829      7020.1913      4176.6044      11196.796      170838.01      44.040426      44.040426      88.080851          16040 
    148000   3449.8789      101366.62      926.85703      101206.33      102244.31      100649.2       325.43924      1709.8314     -229.42163      7152.3008      4150.2621      11302.563      170947         44.049789      44.049789      88.099577          16040 
    149000   3402.5961      102116.67      933.57997      102374.22      101564.23      102411.57     -3186.9743      284.44063     -1.3950827      7054.274       4105.8642      11160.138      170766.2       44.034254      44.034254      88.068508          16040 
    150000   3398.3634      102208.27      940.3033       102434.76      102277.06      101913         517.57152     -1178.0543     -1574.9256      7045.4988      4009.2268      11054.726      170661.31      44.025236      44.025236      88.050473          16040 
    151000   3409.7154      102730.56      947.02864      102849.43      103062.35      102279.91     -381.75536     -2757.3858     -629.7903       7069.0337      4155.7178      11224.752      170803.37      44.037449      44.037449      88.074897          16040 
    152000   3394.2646      103270.04      953.7546       103433.66      102916.24      103460.23     -932.05443     -3499.5335     -591.24163      7037.0011      4231.8484      11268.849      170636.15      44.023072      44.023072      88.046144          16040 
    153000   3418.2027      104054.65      960.47804      104672.44      103585.36      103906.14     -2364.7124      1150.3541     -467.04578      7086.6297      4272.1269      11358.757      170740.4       44.032036      44.032036      88.064073          16040 
    154000   3378.271       103969.63      967.20268      104290.17      104543.14      103075.59     -1532.3075      1192.0498     -262.9419       7003.8431      4142.1423      11145.985      170579.3       44.018183      44.018183      88.036365          16040 
    155000   3429.6044      100539.18      973.92667      101479.17      100139.4       99998.959     -492.73329      1175.272       1407.8034      7110.2677      4213.8332      11324.101      171002.39      44.054546      44.054546      88.109092          16040 
    156000   3387.4151      99897.436      980.65065      99645.018      99919.301      100127.99     -2020.4834     -888.70496      1421.3327      7022.8007      4207.9111      11230.712      171015.81      44.055698      44.055698      88.111396          16040 
    157000   3390.0888      102614.81      987.37687      103000.23      102128.7       102715.5       179.74897     -1143.9897     -971.10503      7028.3439      4123.4667      11151.811      170741.49      44.032129      44.032129      88.064259          16040 
    158000   3406.5811      103276.9       994.10065      102253.01      103543.54      104034.15     -806.6561      -2100.2182      486.08236      7062.5357      4111.7689      11174.305      170667.92      44.025804      44.025804      88.051608          16040 
    159000   3417.7343      101653.71      1000.8251      100850.87      101419.02      102691.25      128.21673      1231.57        952.19939      7085.6586      4134.9114      11220.57       170770.78      44.034647      44.034647      88.069294          16040 
    160000   3394.6681      103337.09      1007.5498      103032.94      103517.5       103460.83      829.98969     -1523.8441      2389.4499      7037.8376      4115.6616      11153.499      170611.08      44.020916      44.020916      88.041832          16040 
    161000   3409.7488      100905.44      1014.2717      101020.16      101467.49      100228.67      438.17696     -1797.2906      307.42643      7069.1031      4160.0638      11229.167      170840.61      44.040649      44.040649      88.081298          16040 
    162000   3380.0953      101186.2       1020.9937      99868.251      101783.04      101907.3       682.81337      353.74044     -19.096789      7007.6253      4151.3323      11158.958      170818.61      44.038758      44.038758      88.077517          16040 
    163000   3410.9048      100012.36      1027.7149      99380.362      98452.61       102204.11      804.40849      3.6580703      657.38059      7071.4997      4144.3279      11215.828      171006.17      44.05487       44.05487       88.109741          16040 
    164000   3432.5649      99680.527      1034.4381      100615.25      100913.24      97513.09       420.90411     -1162.6714      833.02443      7116.4055      4205.2749      11321.68       171079.61      44.061176      44.061176      88.122352          16040 
    165000   3396.4053      100954.84      1041.1644      99313.053      102007.72      101543.73     -2152.6463      2769.5882     -2616.0839      7041.4392      4119.7833      11161.222      170941.43      44.04931       44.04931       88.098621          16040 
    166000   3425.5062      97525.42       1047.8867      98200.482      98484.47       95891.308     -1021.4922     -888.56907     -699.5798       7101.7713      4195.8861      11297.657      171268.31      44.07737       44.07737       88.154739          16040 
    167000   3378.56        101082.51      1054.6094      102066.73      100829.75      100351.04     -2556.1471     -720.74804     -1863.8439      7004.4423      4172.5898      11177.032      170958.53      44.050779      44.050779      88.101558          16040 
    168000   3414.8603      98620.499      1061.3322      99657.379      98346.818      97857.3        797.72666     -543.55221     -893.13779      7079.7003      4229.2221      11308.922      171105.47      44.063396      44.063396      88.126792          16040 
    169000   3405.9702      101739.35      1068.0558      102867.28      100887.45      101463.31     -1847.4431      856.05696     -352.40052      7061.2693      4112.6055      11173.875      170825.55      44.039355      44.039355      88.078709          16040 
    170000   3364.8146      103291.81      1074.7775      102599.65      102264.35      105011.44     -919.46891      1624.8476     -2290.8819      6975.9453      4195.0908      11171.036      170745.23      44.032452      44.032452      88.064903          16040 
    171000   3461.2055      100168.4       1081.5007      98901.111      100863.75      100740.35     -903.07113     -1822.09        770.46236      7175.7833      4129.1612      11304.944      171043.49      44.058075      44.058075      88.116149          16040 
    172000   3377.5172      99642.917      1088.2225      97968.354      100359.68      100600.72      858.93419      1047.7059      664.17027      7002.2803      4170.3802      11172.661      171000.42      44.054376      44.054376      88.108752          16040 
    173000   3379.2402      97214.474      1094.9467      96996.801      97867.283      96779.338      350.82891     -1008.5991     -520.14091      7005.8526      4069.6732      11075.526      171174.74      44.069341      44.069341      88.138682          16040 
    174000   3399.3572      99692.432      1101.67        98711.781      100029.94      100335.57      1116.1218     -940.01893     -2475.9397      7047.5592      4135.4013      11182.96       170975.91      44.052271      44.052271      88.104543          16040 
    175000   3396.1448      103497.76      1108.3935      103408.83      103151.41      103933.04      138.88979      744.09365      2641.7606      7040.8992      4079.026       11119.925      170668.41      44.025847      44.025847      88.051693          16040 
    176000   3412.8061      99860.738      1115.1158      99445.239      100002.08      100134.89     -246.15289      1077.704       149.47184      7075.4415      4144.6234      11220.065      171064.36      44.059867      44.059867      88.119734          16040 
    177000   3370.7347      98766.082      1121.8404      99621.197      98665.973      98011.077     -371.05863      2256.4112     -420.25206      6988.2188      4102.074       11090.293      170950.86      44.05012       44.05012       88.10024           16040 
    178000   3413.0461      99191.19       1128.553       99749.51       97488.793      100335.27     -693.48243      1026.7045      556.11669      7075.9391      4148.2575      11224.197      171135.39      44.065964      44.065964      88.131928          16040 
    179000   3388.971       101569.25      1135.2775      101420.45      102134.99      101152.3      -1733.923       859.6135      -896.23093      7026.0264      4145.0462      11171.073      170864.47      44.042699      44.042699      88.085398          16040 
    180000   3384.816       102626.94      1142.002       102841.21      103124.54      101915.05     -903.94442      1787.1103      2089.5755      7017.4123      4118.2363      11135.649      170646.68      44.023978      44.023978      88.047955          16040 
    181000   3394.7931      104019.83      1148.7256      104459.62      103971.14      103628.73     -233.37204     -2057.5346     -1131.9296      7038.0967      4111.8121      11149.909      170622.52      44.0219        44.0219        88.0438            16040 
    182000   3426.5385      100612.65      1155.4485      100241.31      99613.444      101983.19      2358.3404      173.33052     -753.84784      7103.9115      4172.3316      11276.243      170907.42      44.046389      44.046389      88.092778          16040 
    183000   3377.0063      99551.428      1162.1705      99847.226      100176.95      98630.107      1038.2066     -761.78707     -473.01782      7001.2211      4161.2256      11162.447      170904.22      44.046114      44.046114      88.092228          16040 
    184000   3403.2147      97435.624      1168.8915      98429.064      97154.504      96723.306      655.22915      1704.7019      1825.82        7055.5566      4202.8648      11258.421      171251.7       44.075945      44.075945      88.151889          16040 
    185000   3385.5765      99199.14       1175.6125      99027.06       98709.164      99861.197     -489.78884     -1025.0529      2621.846       7018.989       4073.9774      11092.966      170920.92      44.047549      44.047549      88.095098          16040 
    186000   3389.4526      100433.76      1182.3345      100461.2       100490.66      100349.43      573.4361       2473.8114      727.90488      7027.0249      4110.7344      11137.759      170868.35      44.043032      44.043032      88.086064          16040 
    187000   3392.1746      99142.314      1189.0596      99306.488      98834.872      99285.583     -1967.3002     -168.8283      -1330.0111      7032.6681      4214.7534      11247.421      171069.87      44.06034       44.06034       88.12068           16040 
    188000   3382.4372      103745.68      1195.7811      105487.26      103062.06      102687.73     -623.17263     -1154.7102     -256.3473       7012.4806      4136.7736      11149.254      170681.96      44.027012      44.027012      88.054024          16040 
    189000   3379.3695      101528.98      1202.5065      101863.7       101777.55      100945.67      1192.6264      110.24276     -1933.2535      7006.1205      4047.4515      11053.572      170754.04      44.033209      44.033209      88.066417          16040 
    190000   3378.8646      97167.388      1209.2306      95599.199      98100.002      97802.963     -1196.5816      318.94258      3095.1265      7005.0738      4179.637       11184.711      171215.5       44.072839      44.072839      88.145679          16040 
    191000   3386.3966      95686.015      1215.9551      95775.978      95215.163      96066.905      732.32985     -1287.7116     -1480.4854      7020.6892      4090.5363      11111.226      171308.12      44.080785      44.080785      88.161569          16040 
    192000   3390.8494      96003.934      1222.6787      94643.49       96857.695      96510.617      1352.7413      314.91174      347.09174      7029.9208      4193.4081      11223.329      171466.85      44.094395      44.094395      88.18879           16040 
    193000   3374.9197      97963.241      1229.4004      98041.296      98390.626      97457.8        430.55935     -1851.6899      1109.3093      6996.8952      4110.6334      11107.529      171115.15      44.064227      44.064227      88.128453          16040 
    194000   3396.0511      99540.339      1236.1224      99420.184      100482.8       98718.037     -1107.1647     -577.10612     -437.71211      7040.7049      4093.0111      11133.716      170980.2       44.05264       44.05264       88.10528           16040 
    195000   3414.8194      98255.699      1242.843       98615.473      99734.147      96417.478      164.63551      1203.6959      167.78401      7079.6155      4182.391       11262.006      171213.71      44.072685      44.072685      88.14537           16040 
    196000   3395.6828      101093.23      1249.5625      100494.12      101384.74      101400.84     -786.43689     -305.92557     -1251.9085      7039.9414      4134.712       11174.653      170921.4       44.04759       44.04759       88.095179          16040 
    197000   3388.585       101878.43      1256.2826      101466.69      101523.08      102645.51     -2494.7237      841.30701     -1397.0715      7025.2262      4151.135       11176.361      170864.8       44.042727      44.042727      88.085453          16040 
    198000   3418.6136      100645.65      1263.0036      98584.981      103485.11      99866.85      -283.62773     -645.0593       249.20793      7087.4815      4149.5926      11237.074      170872.25      44.043367      44.043367      88.086734          16040 
    199000   3373.1439      101299.66      1269.7228      101663.97      101685.63      100549.39      56.880056     -182.83582      292.56562      6993.2136      4112.4931      11105.707      170700.27      44.028586      44.028586      88.057172          16040 
    200000   3411.0282      100334.55      1276.4478      100740.31      100476.67      99786.664      915.02906     -1361.3447     -1014.2314      7071.7554      4119.7822      11191.538      170840.57      44.040645      44.040645      88.08129           16040 
    201000   3406.0361      103336.14      1283.1673      103238.46      102268.13      104501.84      3119.9018      26.824034      1129.3781      7061.4058      4170.1954      11231.601      170719.75      44.030261      44.030261      88.060522          16040 
    202000   3435.1379      101404.88      1289.8854      101036.93      100936.49      102241.23     -917.36469     -447.48967     -1206.2349      7121.7397      4157.0214      11278.761      170861.93      44.04248       44.04248       88.084961          16040 
    203000   3442.0703      106258.3       1296.6034      107194.83      106087.35      105492.73      1772.9349     -1284.9947     -651.80727      7136.112       4074.5735      11210.686      170441.01      44.006284      44.006284      88.012568          16040 
    204000   3429.6603      103947.62      1303.3239      104737.17      103758.75      103346.93      1037.4204     -892.80706     -540.35333      7110.3836      4194.0748      11304.458      170749.03      44.032778      44.032778      88.065555          16040 
    205000   3392.926       101046.95      1310.0419      100577.76      101952.93      100610.14     -810.40842      1934.4119     -1341.0506      7034.226       4183.1133      11217.339      170970.99      44.051849      44.051849      88.103698          16040 
    206000   3409.9178      101484.37      1316.7605      102365.03      100912.88      101175.2      -1199.8699      1151.5009     -1189.8046      7069.4534      4001.5682      11071.022      170781.14      44.035538      44.035538      88.071075          16040 
    207000   3383.0298      98744.553      1323.4802      98002.43       99379.233      98851.994      879.12026     -48.132002      459.8269       7013.7092      4163.6157      11177.325      171066.19      44.060024      44.060024      88.120047          16040 
    208000   3385.7832      98361.328      1330.198       97929.534      98521.382      98633.068      468.02404     -433.58116     -2198.7478      7019.4174      4103.6764      11123.094      171131.53      44.065633      44.065633      88.131267          16040 
    209000   3435.3583      94121.606      1336.9155      95212.552      93752.073      93400.194      1334.2134     -264.96309     -840.69133      7122.1967      4030.5595      11152.756      171388.81      44.087705      44.087705      88.175409          16040 
    210000   3362.1811      97545.666      1343.6273      96733.818      97836.025      98067.155      1192.0864      1518.1443      254.91178      6970.4855      4148.2837      11118.769      171099.31      44.062867      44.062867      88.125734          16040 
    211000   3376.3392      99822.359      1350.3493      99954.804      100558.17      98954.102     -2063.0584     -1218.4386      874.24692      6999.838       4096.4873      11096.325      170971.64      44.051905      44.051905      88.10381           16040 
    212000   3386.5936      97236.048      1357.0707      95761.039      98537.101      97410.005     -69.652302     -456.91179     -1500.6019      7021.0977      4189.7987      11210.896      171062.85      44.059737      44.059737      88.119475          16040 
    213000   3372.6651      100759.33      1363.7959      101421.31      99886.06       100970.61      509.27938      1459.7959      164.84357      6992.221       4124.0975      11116.318      170869.62      44.043142      44.043142      88.086283          16040 
    214000   3391.8838      99320.861      1370.5174      99655.571      98915.444      99391.57      -674.51181     -354.63728      560.22733      7032.0652      4107.0722      11139.137      170951.26      44.050155      44.050155      88.10031           16040 
    215000   3376.2191      102887.19      1377.2395      103313.06      101544.74      103803.76     -127.37602      1312.0035      2208.6027      6999.5891      4135.3049      11134.894      170696.19      44.028235      44.028235      88.056471          16040 
    216000   3421.2373      101026.27      1383.9607      102548.18      98992.504      101538.14      177.57248     -1137.1537     -894.55087      7092.921       4194.8538      11287.775      170922.74      44.047704      44.047704      88.095409          16040 
    217000   3429.2412      100572.83      1390.683       100998.7       99662.27       101057.51      175.32694      2698.1735     -937.6007       7109.5148      4099.8019      11209.317      170868.91      44.04308       44.04308       88.08616           16040 
    218000   3423.022       103926.4       1397.4074      104262.5       103260.34      104256.34      809.03003      1114.0047     -2040.9634      7096.6211      4037.9114      11134.532      170456.28      44.007599      44.007599      88.015198          16040 
    219000   3403.1388      100901         1404.1293      101922.18      101811.3       98969.531     -426.29629     -317.93324      672.27856      7055.3992      4135.7458      11191.145      170838.01      44.040425      44.040425      88.08085           16040 
    220000   3384.4694      100279.15      1410.8513      98417.056      100238.45      102181.96     -1546.2287     -707.12999     -614.23793      7016.6937      4052.9117      11069.605      170796.68      44.036873      44.036873      88.073746          16040 
    221000   3413.4911      96137.136      1417.574       95409.815      96721.742      96279.85      -1451.591       400.66194     -717.70445      7076.8616      4138.2551      11215.117      171285.07      44.078808      44.078808      88.157615          16040 
    222000   3380.9625      98179.334      1424.2935      98975.637      98339.793      97222.572      1133.6232     -1559.2966     -146.90006      7009.4232      4058.9127      11068.336      171013.74      44.055521      44.055521      88.111041          16040 
    223000   3424.8111      100119.74      1431.0131      100460.58      100097.41      99801.231     -199.99003     -1614.6883      818.81179      7100.3303      4070.293       11170.623      170877.31      44.043802      44.043802      88.087603          16040 
    224000   3416.6282      99923.246      1437.7347      100562.32      100513.13      98694.288     -769.53778      425.47455      1124.3292      7083.3655      4122.1564      11205.522      171050.38      44.058667      44.058667      88.117334          16040 
    225000   3433.8497      99622.041      1444.4535      100546.16      98269.908      100050.05     -336.99238     -1848.5393     -863.85679      7119.0691      4001.2478      11120.317      170847.66      44.041254      44.041254      88.082509          16040 
    226000   3426.3856      101095.79      1451.1727      100890.88      100576.23      101820.26      2431.0703      974.85998     -381.40905      7103.5945      4154.6762      11258.271      170918.2       44.047314      44.047314      88.094629          16040 
    227000   3416.1308      101281.94      1457.8911      102892.41      101513.53      99439.888      539.05799      1335.2916      548.40504      7082.3342      4126.7734      11209.108      170931.55      44.048462      44.048462      88.096923          16040 
    228000   3391.6858      99025.259      1464.6096      98117.609      99582.612      99375.557     -1197.3865      3750.9318     -956.02185      7031.6548      4132.8228      11164.478      171015.56      44.055676      44.055676      88.111353          16040 
    229000   3360.1794      97594.611      1471.3263      97115.034      97579.049      98089.75       2739.2967      3102.3531      557.63106      6966.3355      4136.2346      11102.57       171173.59      44.069243      44.069243      88.138486          16040 
    230000   3371.2801      95976.643      1478.044       95384.931      96557.854      95987.144     -1461.3023     -1222.0579     -893.44779      6989.3496      4111.6824      11101.032      171162.51      44.068292      44.068292      88.136584          16040 
    231000   3363.1616      96301.086      1484.7601      95613.013      96464.412      96825.832     -1725.7966      1902.2969     -1935.3731      6972.5183      4170.3221      11142.84       171229.45      44.074036      44.074036      88.148072          16040 
    232000   3433.3369      97553.366      1491.4753      97557.099      98296.694      96806.307      3202.906      -128.18522     -893.23169      7118.0059      4093.9578      11211.964      171208         44.072195      44.072195      88.144391          16040 
    233000   3407.3057      97273.198      1498.1916      97314.49       96810.038      97695.068      278.44025      241.6114      -836.49759      7064.0381      4014.8884      11078.926      171138.2       44.066205      44.066205      88.132411          16040 
    234000   3404.348       98964.211      1504.9063      98698.611      98991.098      99202.925     -1260.813       565.48357     -3419.0858      7057.9061      4062.9013      11120.807      170922.8       44.04771       44.04771       88.095421          16040 
    235000   3406.6734      98099.04       1511.621       97698.156      97850.385      98748.58       270.77369     -60.576825     -692.62355      7062.7271      4133.3405      11196.068      171087.69      44.06187       44.06187       88.123739          16040 
    236000   3393.967       100730.29      1518.3364      101354.14      100881.46      99955.278     -897.97398      289.36452     -228.50848      7036.3842      4072.7808      11109.165      170867.72      44.042978      44.042978      88.085956          16040 
    237000   3358.9954      99154          1525.0505      97291.505      101027.42      99143.073      841.8765      -413.30524     -851.35417      6963.8808      4101.9493      11065.83       170908.59      44.046489      44.046489      88.092978          16040 
    238000   3390.2992      99562.486      1531.7651      99305.177      100510.76      98871.519     -970.61419     -57.121263      947.7445       7028.78        4095.2203      11124          170961.82      44.051062      44.051062      88.102123          16040 
    239000   3442.2341      99027.629      1538.4778      98744.195      99825.613      98513.079     -165.19744      1284.6819      73.250155      7136.4516      4117.644       11254.096      171029.9       44.056908      44.056908      88.113816          16040 
    240000   3397.0997      100281.16      1545.1893      100809.16      99341.391      100692.91      990.84096      297.08988      1761.2712      7042.8789      4093.2513      11136.13       170777.38      44.035214      44.035214      88.070429          16040 
    241000   3421.4806      99703.765      1551.9019      99783.147      99073.543      100254.61     -1785.5844     -477.05866     -1548.3612      7093.4254      4157.7165      11251.142      170968.51      44.051636      44.051636      88.103272          16040 
    242000   3405.8454      101568         1558.6112      101975.48      100562.25      102166.28     -2253.0831      1954.8029     -138.27751      7061.0105      4092.253       11153.263      170760.19      44.033737      44.033737      88.067474          16040 
    243000   3429.4382      98743.462      1565.3249      98572.079      99137.539      98520.767      346.4728       726.24273     -419.36837      7109.9232      4044.2067      11154.13       171045.34      44.058234      44.058234      88.116468          16040 
    244000   3415.4415      97966.945      1572.038       97486.324      99136.581      97277.931     -2167.9588     -1299.7569      2205.5316      7080.9052      4059.3681      11140.273      171134.82      44.065915      44.065915      88.131831          16040 
    245000   3420.2406      96941.321      1578.7517      98110.387      96198.973      96514.602      1143.2679     -292.33252      203.81384      7090.8547      4021.2343      11112.089      171090.91      44.062146      44.062146      88.124293          16040 
    246000   3384.1013      95152.562      1585.4653      94229.426      95532.535      95695.725     -1170.7138     -921.32314     -222.85295      7015.9306      4084.0117      11099.942      171325.86      44.082307      44.082307      88.164614          16040 
    247000   3358.4276      98085.267      1592.1796      98657.716      97834.678      97763.408      1418.9355     -925.37245      1149.1175      6962.7037      4070.841       11033.545      171005.88      44.054846      44.054846      88.109691          16040 
    248000   3432.5186      98142.499      1598.896       97139.817      98462.733      98824.947     -655.15975     -788.91631     -471.98145      7116.3095      4083.031       11199.34       171075.88      44.060856      44.060856      88.121712          16040 
    249000   3386.2404      100238.52      1605.6095      100740.68      100392.09      99582.775      418.30542     -321.997       -781.98603      7020.3654      4085.5879      11105.953      170727.37      44.030916      44.030916      88.061831          16040 
    250000   3382.9314      100615.21      1612.3225      101336.22      99980.213      100529.22      1137.4997     -5.0615489     -1013.7501      7013.5052      4125.0471      11138.552      170809.24      44.037953      44.037953      88.075906          16040 
    251000   3375.4349      100511.11      1619.0349      101701.33      100853.53      98978.47      -1091.9329      2671.2657      1448.6172      6997.9633      4150.8246      11148.788      170849.63      44.041423      44.041423      88.082847          16040 
    252000   3414.7832      103753.95      1625.7464      103138.1       106086.88      102036.87      95.469935      396.81137      463.52508      7079.5404      4108.4407      11187.981      170655.67      44.024751      44.024751      88.049502          16040 
    253000   3424.2069      102923.27      1632.4588      103322.92      102436.03      103010.85      267.39347      771.62619      768.453        7099.0775      4097.8188      11196.896      170714.5       44.029809      44.029809      88.059619          16040 
    254000   3403.9828      105209.09      1639.1726      104325.94      104224.84      107076.5       2893.081       3854.8406      1316.7806      7057.1489      4163.1629      11220.312      170561.75      44.016673      44.016673      88.033346          16040 
    255000   3404.8762      101998.62      1645.8821      102922.08      102166.63      100907.14      583.23224     -2533.9474      987.10041      7059.0011      3954.9889      11013.99       170637.23      44.023165      44.023165      88.04633           16040 
    256000   3420.8977      98129.133      1652.5929      97606.459      97612.177      99168.764     -1892.519      -1244.3916     -88.182443      7092.2169      4070.0314      11162.248      171042.78      44.058014      44.058014      88.116027          16040 
    257000   3381.8406      101573.7       1659.3038      101294.37      102226.15      101200.58     -2251.1896      638.60042     -153.35916      7011.2437      4122.0658      11133.31       170664.67      44.025525      44.025525      88.05105           16040 
    258000   3446.7792      103370.19      1666.0138      103170.61      104482.67      102457.29      1468.1055      1173.1917     -271.66402      7145.8745      4168.284       11314.158      170768.84      44.03448       44.03448       88.06896           16040 
    259000   3392.1683      103750.71      1672.7239      102711.83      103746.86      104793.44      1542.4796     -311.4254       187.66925      7032.6551      4135.9151      11168.57       170545.27      44.015256      44.015256      88.030511          16040 
    260000   3380.0772      102122.43      1679.4377      101781.98      102875.35      101709.94     -829.48685      622.8935      -59.125523      7007.5878      4097.9182      11105.506      170670.86      44.026057      44.026057      88.052115          16040 
    261000   3407.5855      100018.94      1686.1465      100330.26      99343.288      100383.27     -528.94659     -636.35503     -335.85359      7064.6181      4090.2473      11154.865      170907.37      44.046384      44.046384      88.092768          16040 
    262000   3419.0809      98011.881      1692.8573      97352.71       97498.014      99184.92       332.13673      1112.3979     -448.90023      7088.4504      4113.1277      11201.578      171018.2       44.055904      44.055904      88.111808          16040 
    263000   3389.1841      99663.817      1699.5682      99734.281      98867.061      100390.11     -1305.6166     -968.0615       3087.747       7026.4682      4081.9197      11108.388      170907.94      44.046434      44.046434      88.092867          16040 
    264000   3433.3166      97145.753      1706.2794      96682.979      97101.653      97652.628     -1218.0969      512.01878      918.39175      7117.9639      4143.059       11261.023      171297.04      44.079834      44.079834      88.159668          16040 
    265000   3364.0384      96987.257      1712.9901      95913.372      97445.305      97603.095      694.28385     -1921.647      -10.617234      6974.336       4094.119       11068.455      171123.62      44.064954      44.064954      88.129907          16040 
    266000   3395.9281      95229.075      1719.7037      94555.829      95551.018      95580.377      641.18096     -2276.9293     -1472.3324      7040.45        4053.3043      11093.754      171257.44      44.076438      44.076438      88.152875          16040 
    267000   3401.5042      100093.72      1726.4159      99933.197      99542.827      100805.15     -3139.666       786.68286      1129.8705      7052.0103      4071.8347      11123.845      170990.84      44.053554      44.053554      88.107108          16040 
    268000   3390.2154      100267.06      1733.1265      97915.851      100694.95      102190.39     -1989.4927     -301.2246      -1205.2028      7028.6064      4072.3012      11100.908      170873.82      44.043502      44.043502      88.087005          16040 
    269000   3381.8035      100736.67      1739.8388      100860.44      100648.46      100701.11     -30.638095     -1094.6296      112.44982      7011.1667      4117.3229      11128.49       170837.5       44.040382      44.040382      88.080763          16040 
    270000   3398.0849      100002.06      1746.5506      100272.62      101204.71      98528.841      855.80442      1018.1346      1461.553       7044.9215      4186.6282      11231.55       170854.77      44.041865      44.041865      88.083731          16040 
    271000   3361.3017      104389.56      1753.2615      103874.96      104132.62      105161.11      1239.8357     -842.74732      764.33265      6968.6623      4130.3509      11099.013      170505.06      44.011796      44.011796      88.023593          16040 
    272000   3430.0699      102170.2       1759.9734      101586.05      102413.23      102511.32      75.23701      -707.36137      215.77431      7111.2327      4067.1938      11178.427      170764.54      44.034111      44.034111      88.068222          16040 
    273000   3373.7134      102159.57      1766.6764      100913.52      102836.29      102728.92      887.40733     -1583.1569      484.00748      6994.3943      4065.4724      11059.867      170581.89      44.018406      44.018406      88.036811          16040 
    274000   3407.0147      100678.71      1773.3858      101564.57      101109.11      99362.461     -503.34145     -1083.1056      1854.5421      7063.4347      4109.9625      11173.397      170862.98      44.04257       44.04257       88.085141          16040 
    275000   3408.6978      101488.41      1780.1016      102135.2       101021.41      101308.6       363.59903      239.73091     -104.03684      7066.9241      4050.6419      11117.566      170598.57      44.019841      44.019841      88.039681          16040 
    276000   3388.0696      102190.11      1786.8168      102982.6       101404.28      102183.44      899.37885     -497.55911     -2065.5785      7024.1577      4054.3984      11078.556      170649.32      44.024205      44.024205      88.04841           16040 
    277000   3398.6357      100586.41      1793.5339      100695.84      100844.35      100219.04      207.53522      1431.3106      2189.7838      7046.0633      4067.0903      11113.154      170829.77      44.039717      44.039717      88.079435          16040 
    278000   3424.1067      98431.767      1800.2573      98158.173      98456.418      98680.711      3844.6832      2390.3742      245.85144      7098.8699      4129.219       11228.089      171041.41      44.057897      44.057897      88.115794          16040 
    279000   3403.6017      100026.66      1806.9804      98971.179      100149.51      100959.28     -1116.1074      3066.6745     -352.66745      7056.3589      4048.8443      11105.203      170831.46      44.039863      44.039863      88.079725          16040 
    280000   3462.2627      98932.475      1813.7042      97974.986      99419.194      99403.244      452.5384      -1432.3322     -776.82074      7177.975       4041.135       11219.11       170916.65      44.047182      44.047182      88.094363          16040 
    281000   3431.4676      99075.256      1820.429       98556.746      100603.91      98065.112      487.30171      1559.7007     -218.16771      7114.1304      4004.9112      11119.042      170960.05      44.05091       44.05091       88.10182           16040 
    282000   3417.7103      101031.72      1827.1532      100010.5       101052.04      102032.63      432.22444      313.1322      -2272.8627      7085.6088      4130.5264      11216.135      170867.48      44.042958      44.042958      88.085915          16040 
    283000   3417.8347      101187.21      1833.8782      101755.31      101080.79      100725.53      1609.8204      886.79189     -1128.3855      7085.8667      4088.1801      11174.047      170709.86      44.02941       44.02941       88.05882           16040 
    284000   3369.4432      102734.27      1840.6038      103751.02      101288.06      103163.74      1421.3691     -87.868736     -371.84836      6985.5413      4140.2809      11125.822      170585.88      44.018749      44.018749      88.037498          16040 
    285000   3438.6717      103780.93      1847.3272      103661.28      104586.5       103095.02     -337.92344      2526.8695     -440.91271      7129.0662      4064.2188      11193.285      170681.67      44.026987      44.026987      88.053974          16040 
    286000   3392.1072      102830.01      1854.0521      102933.31      103729.13      101827.59      1042.8064     -1924.2804      119.61707      7032.5283      4108.6019      11141.13       170612.11      44.021005      44.021005      88.042009          16040 
[...]
   3930000   3156.4871      97565.17       6885.418       84563.901      94113.203      114018.41      1536.2276      579.50827     -760.22466      6544.0401      10007.054      16551.094      186957.25      45.084576      45.084576      91.978502          16040 
   3931000   3178.0544      92760.914      6892.7638      77519.931      91988.613      108774.2       1924.6095      1608.6011      1221.1087      6588.7534      9945.02        16533.773      187234.34      45.106838      45.106838      92.023921          16040 
   3932000   3175.8415      98162.867      6900.1087      86684.439      95601.562      112202.6       115.30995      2852.5795      1347.6334      6584.1657      9961.4645      16545.63       187036.17      45.090919      45.090919      91.991443          16040 
   3933000   3152.7311      102157.7       6907.4484      90109.883      99042.969      117320.25     -978.70924     -1275.7505     -1500.7209      6536.2531      10036.737      16572.99       186591.05      45.05512       45.05512       91.918409          16040 
   3934000   3166.5443      102564.85      6914.7882      88949.533      100894.44      117850.57      838.59154     -1339.7952     -204.45967      6564.8906      9999.8896      16564.78       186725.07      45.065905      45.065905      91.94041           16040 
   3935000   3151.9293      96393.878      6922.1272      83295.248      96365.282      109521.1       290.47207      3503.678       192.39085      6534.5907      9987.6422      16522.233      187404.58      45.120505      45.120505      92.051803          16040 
   3936000   3193.076       100390.5       6929.4697      87475.81       95864.384      117831.31      528.19121     -1015.0195      1546.5856      6619.8962      9943.4626      16563.359      186740.58      45.067152      45.067152      91.942956          16040 
   3937000   3154.9386      98882.877      6936.8004      86578.531      97313.384      112756.72      257.60068     -1147.3309      2098.352       6540.8296      9998.7525      16539.582      187121.96      45.097812      45.097812      92.005505          16040 
   3938000   3167.6727      99726.605      6944.1366      87757.788      97314.801      114107.23     -729.34901      1858.8116     -1167.1451      6567.23        9978.0842      16545.314      187027.22      45.0902        45.0902        91.989976          16040 
   3939000   3199.575       104937.26      6951.4725      91813.641      103900.65      119097.48      2072.5239     -474.72353     -100.63454      6633.37        9933.4166      16566.787      186669.88      45.061464      45.061464      91.931351          16040 
   3940000   3167.3971      100413.47      6958.81        87741.254      98297.884      115201.27      967.34251      329.26429     -1731.1619      6566.6586      9968.2712      16534.93       187156.61      45.100595      45.100595      92.011184          16040 
   3941000   3205.9542      102107.97      6966.1484      87723.602      97423.731      121176.57     -1513.5269     -1346.5872     -2550.1814      6646.5954      9912.3991      16558.995      186749.57      45.067876      45.067876      91.944433          16040 
   3942000   3180.6766      98646.61       6973.4863      88977.223      93139.513      113823.09     -2267.4498     -2369.2258     -1447.1521      6594.1898      9939.6035      16533.793      187144.81      45.099648      45.099648      92.009251          16040 
   3943000   3196.8807      99070.914      6980.8203      83383.328      97254.005      116575.41      707.58749     -216.92278      596.81038      6627.7841      9898.6804      16526.464      187253.23      45.108355      45.108355      92.027015          16040 
   3944000   3188.4234      98830.903      6988.1536      86641.338      95966.661      113884.71      1988.1961     -549.30041     -1005.3035      6610.2505      9911.4037      16521.654      187309.96      45.11291       45.11291       92.036308          16040 
   3945000   3175.4705      98217.623      6995.4854      86137.13       97091.844      111423.89     -294.02389      959.16083     -2553.2251      6583.3965      9941.5359      16524.932      187254.7       45.108473      45.108473      92.027255          16040 
   3946000   3151.8723      98495.923      7002.8273      85826.128      98911.438      110750.2       1843.2778      624.43823     -989.4477       6534.4726      10007.762      16542.234      186978.84      45.086311      45.086311      91.982043          16040 
   3947000   3154.4307      101445.02      7010.1659      88165.883      99568.847      116600.34      551.40142     -1206.3055      849.62991      6539.7767      10012.176      16551.953      186813.18      45.072992      45.072992      91.95487           16040 
   3948000   3204.085       104067.81      7017.5067      91430.511      101926.7       118846.22      1441.0826      486.8975       1427.4465      6642.7202      9923.8405      16566.561      186574.17      45.053761      45.053761      91.915637          16040 
   3949000   3164.2271      97879.631      7024.8527      82739.314      94645.32       116254.26      118.79852     -1134.9863     -1854.9444      6560.0865      9982.8044      16542.891      186946.78      45.083734      45.083734      91.976786          16040 
   3950000   3185.2002      101874.15      7032.1958      88208.491      97652.532      119761.43     -186.52412     -950.66653      2394.8723      6603.5681      9947.507       16551.075      186807.7       45.072551      45.072551      91.953971          16040 
   3951000   3183.0214      99384.258      7039.5459      87264.748      97951.226      112936.8       3331.5368      1148.5601     -1534.548       6599.051       9939.3271      16538.378      186975.63      45.086053      45.086053      91.981516          16040 
   3952000   3176.4624      99667.865      7046.8967      88460.856      95725.745      114816.99      560.31881     -466.46704     -73.342267      6585.4528      9976.5578      16562.011      186595.42      45.055472      45.055472      91.919127          16040 
   3953000   3156.9369      100409.54      7054.2417      87096.948      96010.717      118120.96      677.71237      573.38301      699.11301      6544.9725      9992.3734      16537.346      186983.3       45.08667       45.08667       91.982775          16040 
   3954000   3173.0122      101202.2       7061.5944      85543.528      100985.94      117077.13      1755.4501     -1833.3016      1289.8337      6578.2999      9972.1244      16550.424      186760.62      45.068765      45.068765      91.946246          16040 
   3955000   3154.4209      98924.375      7068.9488      84929.733      96260.959      115582.43      1308.3501      1278.3261      989.59107      6539.7564      10002.892      16542.648      186887.93      45.079003      45.079003      91.967133          16040 
   3956000   3181.9415      100692.45      7076.3003      89030.909      98497.255      114549.17      1761.8299     -861.33899      1052.0378      6596.8121      9961.9414      16558.754      186622.76      45.057673      45.057673      91.923616          16040 
   3957000   3162.8745      96472.294      7083.6565      85046.075      92983.504      111387.3       434.82459      243.87842      3346.1778      6557.2825      9963.9621      16521.245      187216.19      45.10538       45.10538       92.020946          16040 
   3958000   3165.2389      104582.51      7091.0117      89553.444      105488.13      118705.97      1809.7354     -180.03074     -1897.9741      6562.1842      9998.0726      16560.257      186575.3       45.053852      45.053852      91.915822          16040 
   3959000   3136.7832      97455.817      7098.3616      83466.676      95782.754      113118.02      1652.8138      3300.6635     -927.04365      6503.1897      10032.179      16535.369      186962.32      45.084984      45.084984      91.979334          16040 
   3960000   3179.5771      100236.1       7105.7198      85773.867      98381.391      116553.03     -1816.0149     -211.01755      1312.6538      6591.9103      9966.3706      16558.281      186580.96      45.054308      45.054308      91.916752          16040 
   3961000   3175.1627      103445.06      7113.0731      90828.937      99851.138      119655.09      643.49594      2915.4431     -539.70874      6582.7583      9955.1146      16537.873      186912.1       45.080946      45.080946      91.971098          16040 
   3962000   3169.3024      99183.464      7120.4199      83313.627      97958.716      116278.05      2450.9327      1934.217      -1702.9295      6570.6087      9950.0704      16520.679      187173.35      45.10194       45.10194       92.013927          16040 
   3963000   3141.8733      97350.589      7127.7704      87963.49       92374.948      111713.33     -1204.5173      1713.4802      1914.2901      6513.7427      10016.064      16529.807      187027.49      45.090221      45.090221      91.99002           16040 
   3964000   3193.8286      100295.64      7135.1242      87418.574      97131.021      116337.32      1681.2028      530.19983     -95.249592      6621.4566      9908.3985      16529.855      187013.84      45.089124      45.089124      91.987782          16040 
   3965000   3166.1444      102817.74      7142.4717      88574.492      102024.79      117853.95     -133.48863      243.36315     -1357.7882      6564.0615      9998.3938      16562.455      186470.52      45.045417      45.045417      91.898613          16040 
   3966000   3133.4293      101535.81      7149.8194      88631.161      101471.78      114504.49      343.87935     -2830.943       260.00249      6496.2365      10046.491      16542.727      186776.53      45.070045      45.070045      91.948857          16040 
   3967000   3138.6566      98521.383      7157.1675      83408.787      96680.023      115475.34     -205.9934       1946.1786     -1422.6556      6507.0736      10026.111      16533.185      186915.2       45.081196      45.081196      91.971607          16040 
   3968000   3142.5229      98191.015      7164.5116      87176.392      96989.875      110406.78      86.441699     -2747.0294     -2834.4215      6515.0894      10003.395      16518.485      187148.68      45.099958      45.099958      92.009885          16040 
   3969000   3166.295       99629.245      7171.8559      87066.207      97358.768      114462.76     -1335.4838     -2296.7769      1678.3895      6564.3738      9959.1274      16523.501      187055.65      45.092484      45.092484      91.994637          16040 
   3970000   3169.797       99915.278      7179.2037      85516.791      99021.288      115207.76      4033.9662     -1620.5832     -731.6627       6571.6342      9957.0778      16528.712      186966.99      45.085359      45.085359      91.9801            16040 
   3971000   3132.2921      100213.24      7186.5533      87451.784      96916.16       116271.78     -33.234525      30.756017     -1211.0038      6493.8789      10030.306      16524.185      187031.14      45.090514      45.090514      91.990618          16040 
   3972000   3112.4372      101919.21      7193.9005      86557.4        100617.18      118583.05     -2038.9183      1281.9979     -2660.3379      6452.7157      10078.817      16531.533      186924.07      45.081908      45.081908      91.97306           16040 
   3973000   3152.0578      99623.177      7201.2474      86308.85       97443.311      115117.37      1496.7108      1054.1999     -819.55918      6534.8572      10005.537      16540.394      186760.49      45.068754      45.068754      91.946224          16040 
   3974000   3154.2839      99478.287      7208.5945      87698.257      99547.397      111189.21      887.88229     -641.30423      2990.4556      6539.4724      9984.3249      16523.797      187027.93      45.090257      45.090257      91.990092          16040 
   3975000   3176.5756      99002.867      7215.9447      86328.228      98123.754      112556.62      1725.8286      511.4062       817.27205      6585.6875      9929.2561      16514.944      187158.21      45.100724      45.100724      92.011446          16040 
   3976000   3160.5071      99895.946      7223.2966      86659.346      99914.956      113113.53      2720.8131     -1015.3557     -685.53917      6552.3742      9971.4342      16523.808      187001.11      45.088101      45.088101      91.985695          16040 
   3977000   3149.9864      98356.795      7230.6461      83074.927      98142.592      113852.87      421.71516     -467.66462     -1867.1576      6530.5627      9977.5285      16508.091      187247.01      45.107856      45.107856      92.025997          16040 
   3978000   3140.2949      99624.046      7237.9925      84301.235      99366.538      115204.37      208.83064     -184.01134      2679.8316      6510.4704      9990.818       16501.288      187340.07      45.115327      45.115327      92.04124           16040 
   3979000   3126.6716      102297.58      7245.3395      88928.761      98670.867      119293.11     -147.64918     -922.49832      2050.214       6482.2263      10034.606      16516.832      187092.86      45.095474      45.095474      92.000736          16040 
   3980000   3140.5378      96040.753      7252.6848      84262.488      95654.343      108205.43     -1107.9228      1006.7549     -1949.9809      6510.9739      9981.8653      16492.839      187473.98      45.126074      45.126074      92.063164          16040 
   3981000   3124.3573      101035.1       7260.0406      86999.07       101125.18      114981.06     -3824.0218      2419.689       2063.2102      6477.4284      10055.993      16533.421      186821.6       45.07367       45.07367       91.956252          16040 
   3982000   3110.1919      101490.76      7267.3921      91304.876      100152.83      113014.59     -1603.4228      1653.5899      74.778628      6448.0606      10084.937      16532.998      186808.91      45.072649      45.072649      91.954169          16040 
   3983000   3117.2268      97773.5        7274.7422      83834.443      96715.677      112770.38      401.71329     -1752.2364      515.1714       6462.6455      10024.656      16487.302      187536.43      45.131084      45.131084      92.073386          16040 
   3984000   3129.3044      98155.3        7282.0867      85662.117      96392.343      112411.44     -870.50843      1197.914       2295.836       6487.6847      10018.723      16506.408      187232.34      45.106678      45.106678      92.023593          16040 
   3985000   3123.9219      99377.08       7289.4355      87026.505      97552.578      113552.16     -1044.2453      923.96735     -774.80832      6476.5257      10040.859      16517.384      187047.75      45.091849      45.091849      91.993341          16040 
   3986000   3156.6751      99090.449      7296.785       85859.092      95700.162      115712.09     -967.0448      -3432.4624     -1715.8866      6544.4297      9948.9632      16493.393      187429.5       45.122505      45.122505      92.055883          16040 
   3987000   3172.1552      98475.212      7304.129       84757.991      98460.537      112207.11     -2158.1978      629.3081       938.42874      6576.5231      9915.0575      16491.581      187452.64      45.124361      45.124361      92.05967           16040 
   3988000   3143.6113      97655.767      7311.48        83995.847      94361.513      114609.94     -994.86872     -4147.1373      1599.1954      6517.3458      9988.277       16505.623      187220.99      45.105766      45.105766      92.021734          16040 
   3989000   3146.0861      101895.9       7318.8193      89679.655      100275.06      115732.98      168.53851     -1395.1654      2130.0591      6522.4765      10010.975      16533.451      186771.44      45.069635      45.069635      91.948022          16040 
   3990000   3147.9536      100067.24      7326.168       87320.714      99808.958      113072.04     -842.74152      99.293031      585.14194      6526.3483      9983.7782      16510.127      187143.96      45.099579      45.099579      92.009111          16040 
   3991000   3156.3805      99106.578      7333.5087      86206.704      99234.682      111878.35      1531.45        1640.5987     -33.110766      6543.8189      9984.1804      16527.999      186861.89      45.076909      45.076909      91.962861          16040 
   3992000   3147.8167      97923.022      7340.847       81790.523      98424.615      113553.93     -1454.3122      1494.0385     -4418.8999      6526.0645      9981.7253      16507.79       187166.08      45.101356      45.101356      92.012736          16040 
   3993000   3146.8363      100580.31      7348.1959      84878.543      99323.618      117538.78      971.79149      3614.5265      1281.1089      6524.032       9994.9554      16518.987      186975.44      45.086038      45.086038      91.981486          16040 
   3994000   3126.8247      103589.33      7355.5481      87683.389      102595.32      120489.27      1301.1739      955.11818     -663.74053      6482.5439      10044.896      16527.44       186847.4       45.075744      45.075744      91.960485          16040 
   3995000   3139.4268      101978.69      7362.9003      87280.499      100264.37      118391.2       590.75478      1580.9522      3572.9962      6508.6706      10017.528      16526.198      186860.3       45.076781      45.076781      91.962601          16040 
   3996000   3150.4988      100146.75      7370.2582      84974.966      98422.724      117042.55     -2168.3083      1071.5914     -1492.9101      6531.6251      9980.4955      16512.121      187072.74      45.093857      45.093857      91.997437          16040 
   3997000   3150.4514      103903.72      7377.612       90510.01       102424.89      118776.27     -812.18431      2039.7151     -402.34667      6531.5267      10003.421      16534.947      186721.65      45.06563       45.06563       91.93985           16040 
   3998000   3145.5833      98909.69       7384.9682      83408.072      98210.776      115110.22     -407.31397      1554.0087     -67.195721      6521.4342      9971.4454      16492.88       187389.55      45.119299      45.119299      92.049341          16040 
   3999000   3127.437       100205         7392.3202      87581.111      98619.722      114414.18     -2317.0376      844.37127      580.8556       6483.8132      10013.466      16497.279      187275.33      45.11013       45.11013       92.030635          16040 
   4000000   3149.1386      99186.385      7399.675       86866.495      96768.432      113924.23     -1279.5867     -2496.3147     -3101.1963      6528.805       9963.7857      16492.591      187350.24      45.116143      45.116143      92.042904          16040 
Loop time of 7399.68 on 8 procs for 1000000 steps with 16040 atoms

Performance: 5.838 ns/day, 4.111 hours/ns, 135.141 timesteps/s
60.1% CPU use with 1 MPI tasks x 8 OpenMP threads

MPI task timing breakdown:
Section |  min time  |  avg time  |  max time  |%varavg| %total
---------------------------------------------------------------
Pair    | 7120       | 7120       | 7120       |   0.0 | 96.22
Neigh   | 10.464     | 10.464     | 10.464     |   0.0 |  0.14
Comm    | 37.917     | 37.917     | 37.917     |   0.0 |  0.51
Output  | 1.2811     | 1.2811     | 1.2811     |   0.0 |  0.02
Modify  | 204.37     | 204.37     | 204.37     |   0.0 |  2.76
Other   |            | 25.68      |            |       |  0.35

Nlocal:          16040 ave       16040 max       16040 min
Histogram: 1 0 0 0 0 0 0 0 0 0
Nghost:          13585 ave       13585 max       13585 min
Histogram: 1 0 0 0 0 0 0 0 0 0
Neighs:              0 ave           0 max           0 min
Histogram: 1 0 0 0 0 0 0 0 0 0
FullNghs:  1.30789e+06 ave 1.30789e+06 max 1.30789e+06 min
Histogram: 1 0 0 0 0 0 0 0 0 0

Total # of neighbors = 1307894
Ave neighs/atom = 81.539526
Neighbor list builds = 30638
Dangerous builds = 0
Total wall time: 7:40:01
