
atom_style atomic
units metal
boundary p p p
#atom_modify sort 0 0.0
newton on

read_data data.lammps
Reading data file ...
  orthogonal box = (0 0 0) to (43.790145 43.790145 87.58029)
  1 by 1 by 1 MPI processor grid
  reading atoms ...
  16040 atoms
  read_data CPU = 0.039 seconds
# replicate 10 10 20

### interactions

pair_style flare
pair_coeff * * lmp.flare
Reading potential file lmp.flare with DATE: Thu

# compute unc all flare/std/atom L_inv_lmp.flare sparse_desc_lmp.flare
# compute MaxUnc all reduce max c_unc

mass 1 12.011000
mass 2 28.085000

thermo_style custom step temp press cpu pxx pyy pzz pxy pxz pyz ke pe etotal vol lx ly lz atoms    #c_MaxUnc
thermo 1000
timestep 0.0005
restart 100000 restart_*.dat

#################### Equilibrate at P and T_es ##############################
velocity all create $T 41928459 rot yes dist gaussian
velocity all create 3600 41928459 rot yes dist gaussian
fix mom all momentum 1000 linear 1 1 1 angular

fix 1 all npt temp $T $T $(100.0*dt) iso $P $P $(1000.0*dt)
fix 1 all npt temp 3600 $T $(100.0*dt) iso $P $P $(1000.0*dt)
fix 1 all npt temp 3600 3600 $(100.0*dt) iso $P $P $(1000.0*dt)
fix 1 all npt temp 3600 3600 0.050000000000000002776 iso $P $P $(1000.0*dt)
fix 1 all npt temp 3600 3600 0.050000000000000002776 iso 300000 $P $(1000.0*dt)
fix 1 all npt temp 3600 3600 0.050000000000000002776 iso 300000 300000 $(1000.0*dt)
fix 1 all npt temp 3600 3600 0.050000000000000002776 iso 300000 300000 0.5
dump 1 all custom 1000 1equil.bin id type x y z vx vy vz
run   10000 # report performance
Neighbor list info ...
  update every 1 steps, delay 10 steps, check yes
  max neighbors/atom: 2000, page size: 100000
  master list distance cutoff = 6
  ghost atom cutoff = 6
  binsize = 6, bins = 8 8 15
  1 neighbor lists, perpetual/occasional/extra = 1 0 0
  (1) pair flare/kk, perpetual
      attributes: full, newton on, kokkos_device
      pair build: full/bin/kk/device
      stencil: full/bin/3d
      bin: kk/device
Per MPI rank memory allocation (min/avg/max) = 16.04 | 16.04 | 16.04 Mbytes
   Step          Temp          Press           CPU            Pxx            Pyy            Pzz            Pxy            Pxz            Pyz           KinEng         PotEng         TotEng         Volume           Lx             Ly             Lz          Atoms   
         0   3600           81902.079      0              82518.078      81452.516      81735.644      1102.7296     -207.42286     -845.17692      7463.5325     -2985.8921      4477.6404      167941.93      43.790145      43.790145      87.58029           16040 
      1000   3650.1593      303034.48      6.447781       303933.21      302455.3       302714.93      867.1582      -1903.8428     -1348.3648      7567.523       5652.6616      13220.185      157235.25      42.839064      42.839064      85.678128          16040 
      2000   3600.1321      299069.41      12.873006      298695.26      299775.39      298737.58     -922.197       -38.909684      1296.8514      7463.8062      5550.2421      13014.048      157199.63      42.835828      42.835828      85.671657          16040 
      3000   3569.1107      301714.99      19.297184      301251.69      302385.48      301507.81     -1363.7461     -175.9317       924.31911      7399.4928      5475.9622      12875.455      157060.55      42.823192      42.823192      85.646384          16040 
      4000   3634.8874      299665.7       25.721906      298715.08      298945.42      301336.58     -2643.5394      843.89689     -1233.0073      7535.8611      5471.2173      13007.078      157207.36      42.836531      42.836531      85.673061          16040 
      5000   3552.7147      300800.91      32.145658      301674.25      299806.26      300922.23     -1884.489      -60.029486     -168.11155      7365.5005      5517.4139      12882.914      157005.42      42.818181      42.818181      85.636363          16040 
      6000   3579.3674      299980.65      38.588967      298866.07      301213.53      299862.36     -2269.4076     -694.99055     -112.92901      7420.757       5538.705       12959.462      157076.07      42.824603      42.824603      85.649206          16040 
      7000   3606.0372      299871.41      45.035635      299635.53      301106.62      298872.07     -2661.9653     -1002.5243      334.80163      7476.0487      5451.0115      12927.06       157032.33      42.820628      42.820628      85.641255          16040 
      8000   3590.5196      300262         51.480548      301039.54      300162.09      299584.37      2653.6763     -353.46881      3238.9306      7443.8776      5492.1456      12936.023      156996.38      42.817359      42.817359      85.634719          16040 
      9000   3630.4342      302592.76      57.922135      301548.21      302819.26      303410.81      687.16073     -382.05583      1005.1737      7526.6288      5481.8564      13008.485      156950.74      42.81321       42.81321       85.62642           16040 
     10000   3580.1077      307012.95      64.362774      307483.08      307557.78      305998        -1245.3467     -2596.2761     -1759.1793      7422.2916      5501.1566      12923.448      156606.02      42.781842      42.781842      85.563685          16040 
Loop time of 64.3628 on 8 procs for 10000 steps with 16040 atoms

Performance: 6.712 ns/day, 3.576 hours/ns, 155.369 timesteps/s
61.6% CPU use with 1 MPI tasks x 8 OpenMP threads

MPI task timing breakdown:
Section |  min time  |  avg time  |  max time  |%varavg| %total
---------------------------------------------------------------
Pair    | 61.341     | 61.341     | 61.341     |   0.0 | 95.31
Neigh   | 0.090594   | 0.090594   | 0.090594   |   0.0 |  0.14
Comm    | 0.35716    | 0.35716    | 0.35716    |   0.0 |  0.55
Output  | 0.012892   | 0.012892   | 0.012892   |   0.0 |  0.02
Modify  | 2.3057     | 2.3057     | 2.3057     |   0.0 |  3.58
Other   |            | 0.2551     |            |       |  0.40

Nlocal:          16040 ave       16040 max       16040 min
Histogram: 1 0 0 0 0 0 0 0 0 0
Nghost:          13700 ave       13700 max       13700 min
Histogram: 1 0 0 0 0 0 0 0 0 0
Neighs:              0 ave           0 max           0 min
Histogram: 1 0 0 0 0 0 0 0 0 0
FullNghs:  1.48103e+06 ave 1.48103e+06 max 1.48103e+06 min
Histogram: 1 0 0 0 0 0 0 0 0 0

Total # of neighbors = 1481028
Ave neighs/atom = 92.333416
Neighbor list builds = 299
Dangerous builds = 0
run  990000
Per MPI rank memory allocation (min/avg/max) = 16.11 | 16.11 | 16.11 Mbytes
   Step          Temp          Press           CPU            Pxx            Pyy            Pzz            Pxy            Pxz            Pyz           KinEng         PotEng         TotEng         Volume           Lx             Ly             Lz          Atoms   
     10000   3580.1077      307012.95      0              307483.08      307557.78      305998        -1245.3467     -2596.2761     -1759.1793      7422.2916      5501.1566      12923.448      156606.02      42.781842      42.781842      85.563685          16040 
     11000   3613.0292      302429.08      6.4276871      302439.54      302059.52      302788.18     -359.68742      1113.9703     -1689.4095      7490.5446      5527.4284      13017.973      156917.6       42.810196      42.810196      85.620393          16040 
     12000   3572.9032      300726.4       12.852275      301153.48      299311.3       301714.42     -1720.1086     -2053.7867      3425.1528      7407.3553      5481.9467      12889.302      156938.73      42.812118      42.812118      85.624236          16040 
     13000   3585.6468      299371.29      19.271219      300734.76      298318.34      299060.78     -7.680008      -1317.9361     -3134.1282      7433.7754      5516.0264      12949.802      157109.63      42.827652      42.827652      85.655304          16040 
     14000   3551.4255      302402.36      25.697587      301641.89      303040.77      302524.41      1351.6488     -4296.433       1131.4429      7362.8276      5471.3732      12834.201      156889.34      42.807627      42.807627      85.615253          16040 
     15000   3632.277       299199.91      32.117461      299259.89      296399.5       301940.34      552.90772      564.80791     -1096.25        7530.4492      5499.0073      13029.457      157126.83      42.829215      42.829215      85.65843           16040 
     16000   3599.3887      295213.18      38.536029      294722.7       296060.03      294856.82     -1690.2046      972.99313      1826.7184      7462.265       5346.0624      12808.327      157120.13      42.828607      42.828607      85.657214          16040 
     17000   3592.1656      293667.48      44.966603      294574.23      292069.21      294358.99      24.12623      -849.72058      814.59002      7447.2902      5262.5         12709.79       157296.14      42.844593      42.844593      85.689186          16040 
     18000   3591.8945      294080.19      51.382883      295581.86      293079.25      293579.46      1836.4802     -143.50742     -2998.6316      7446.7282      5347.7556      12794.484      157221.84      42.837846      42.837846      85.675692          16040 
     19000   3605.3053      295949.38      57.806765      295594.41      296043.75      296209.97      1299.8563      3364.7729      2255.9445      7474.5314      5473.7885      12948.32       157221.5       42.837815      42.837815      85.675631          16040 
     20000   3545.2748      297757.12      64.224702      297236.29      297662.26      298372.81     -923.15062     -5353.9807     -3497.8035      7350.076       5436.0322      12786.108      157075.62      42.824562      42.824562      85.649124          16040 
     21000   3594.5656      297519.83      70.641847      299192.02      296094.23      297273.23     -2442.0206      1735.0194      3918.1596      7452.2658      5343.6971      12795.963      157099.32      42.826716      42.826716      85.653432          16040 
     22000   3591.1538      299519.45      77.059476      300389.32      300133.55      298035.49     -2128.8626      1230.5316     -3217.7045      7445.1925      5424.705       12869.898      157021.77      42.819667      42.819667      85.639334          16040 
     23000   3565.0408      297686.51      83.476411      295383.09      298956.24      298720.2       1958.6996      465.36193     -762.78382      7391.055       5435.493       12826.548      157120.18      42.828611      42.828611      85.657221          16040 
     24000   3578.8535      299171.14      89.912743      298802.12      299996.66      298714.66      2207.0107      807.02325      790.84782      7419.6914      5282.8446      12702.536      156966.49      42.814642      42.814642      85.629284          16040 
     25000   3659.0394      298683.54      96.335622      298854.87      299643.63      297552.11      1065.9493     -1327.5347     -3973.6067      7585.9331      5291.3875      12877.321      157082.02      42.825143      42.825143      85.650286          16040 
     26000   3619.8698      302903.74      102.75316      302957.22      303808.06      301945.94      1789.4691     -2912.9957     -251.2836       7504.7266      5359.5267      12864.253      156836.5       42.80282       42.80282       85.605639          16040 
     27000   3603.5874      302156.95      109.17084      303314.17      301736         301420.66      310.90377      158.75002      881.38155      7470.9698      5388.7773      12859.747      156870.49      42.805912      42.805912      85.611824          16040 
     28000   3660.0542      299994.85      115.58967      299024.51      299264.75      301695.28      1001.7507      798.88894     -588.41257      7588.0371      5421.4828      13009.52       157003.78      42.818033      42.818033      85.636065          16040 
     29000   3609.1821      301953.89      122.00675      300509.79      302437.16      302914.72      1648.6917     -2749.9525      663.35115      7482.5689      5433.5063      12916.075      156899         42.808505      42.808505      85.617009          16040 
     30000   3629.5168      301405.37      128.42505      303498.66      302095.39      298622.04      417.9346      -1585.2538     -2310.8277      7524.7268      5329.2873      12854.014      156748.65      42.794826      42.794826      85.589652          16040 
     31000   3559.6992      301153.44      134.84174      300034.21      300475.17      302950.95      13.058387     -1128.728      -631.94874      7379.9807      5326.5211      12706.502      156805.46      42.799996      42.799996      85.599992          16040 
     32000   3607.9646      296107.31      141.25885      295393.98      296580.08      296347.88      698.08537      1584.5008      845.94669      7480.0447      5281.9499      12761.995      157119.84      42.82858       42.82858       85.65716           16040 
     33000   3601.3036      293278.21      147.67824      291952.91      294420.81      293460.89      1149.6659      1221.041       2844.2209      7466.2352      5288.0397      12754.275      157315.63      42.846362      42.846362      85.692725          16040 
     34000   3599.4143      296511.64      154.09459      297625.3       296211.81      295697.8      -660.10144     -191.87448     -2658.5438      7462.3182      5267.4487      12729.767      157153.37      42.831627      42.831627      85.663254          16040 
     35000   3590.7743      297179.56      160.51118      298168.3       296850.05      296520.33     -2257.0359     -2804.8669      542.23118      7444.4058      5273.4251      12717.831      157030.87      42.820494      42.820494      85.640989          16040 
     36000   3615.8113      300826.67      166.92836      300823.11      300451.13      301205.77     -886.94382     -1678.5273      2150.982       7496.3125      5271.7301      12768.043      156883.95      42.807136      42.807136      85.614273          16040 
     37000   3614.2343      297949.06      173.34522      298748.91      296486.3       298611.98     -770.83047     -83.857004     -709.40616      7493.0431      5320.6586      12813.702      157050.89      42.822314      42.822314      85.644628          16040 
     38000   3567.8715      300618.58      179.76266      301585.1       301952.67      298317.98      1451.4181     -2553.133       1582.5459      7396.9237      5278.9207      12675.844      156841.25      42.803252      42.803252      85.606505          16040 
     39000   3589.1621      301528.68      186.18084      303673.02      300237.02      300675.98      1092.3892     -331.60754     -183.14316      7441.0633      5403.4414      12844.505      156807.2       42.800155      42.800155      85.600309          16040 
     40000   3589.6328      302122.33      192.59791      301575.7       303118.97      301672.33     -725.2737       199.88243      828.71215      7442.0391      5386.9632      12829.002      156896.43      42.808271      42.808271      85.616542          16040 
     41000   3555.9374      303041.49      199.01583      301830.39      302141.73      305152.35     -692.83838      2053.0649      2486.4671      7372.1817      5347.3628      12719.544      156642.96      42.785206      42.785206      85.570412          16040 
     42000   3633.2593      301249.9       205.43255      301720.88      301221.86      300806.95     -11.300442      3362.2756     -2130.6416      7532.4858      5270.2478      12802.734      156773.53      42.797091      42.797091      85.594181          16040 
     43000   3594.1362      297483.31      211.8487       297061.79      297636.43      297751.73     -889.25436     -1531.269       651.29884      7451.3757      5444.7753      12896.151      157079.08      42.824876      42.824876      85.649753          16040 
     44000   3579.2308      298146.88      218.26673      298866.53      298587.46      296986.65      60.144304      2025.3319     -711.31315      7420.4738      5301.7114      12722.185      156979.12      42.81579       42.81579       85.63158           16040 
     45000   3614.3939      291699.46      224.68444      289184.96      295247.73      290665.69     -2081.7293     -1204.9084      387.68158      7493.3739      5308.3048      12801.679      157462.08      42.859654      42.859654      85.719308          16040 
     46000   3615.3901      298670.15      231.10192      300411.32      296155.77      299443.35      472.56329     -844.49842     -2070.0764      7495.4393      5258.0318      12753.471      156976.75      42.815574      42.815574      85.631149          16040 
     47000   3598.2004      299373.4       237.52025      300978.33      299600.38      297541.49     -120.16296     -434.35769      112.6271       7459.8015      5302.0626      12761.864      156873.21      42.806159      42.806159      85.612318          16040 
     48000   3574.1093      299417.69      243.93752      297388.59      301443.09      299421.38     -1834.5342     -1931.0545      578.00934      7409.8558      5260.4903      12670.346      156814.96      42.800861      42.800861      85.601721          16040 
     49000   3606.1226      299978.54      250.35483      298825.99      300747.92      300361.7      -3652.0991     -772.69347      2090.4402      7476.2258      5313.5784      12789.804      156888.01      42.807506      42.807506      85.615012          16040 
     50000   3570.8104      300787.22      256.77296      299803.12      301797.29      300761.23      306.0233      -2703.949       509.04525      7403.0164      5305.4918      12708.508      156770.04      42.796773      42.796773      85.593546          16040 
     51000   3609.0569      300537.75      263.19074      300380.37      298726.33      302506.55      1617.4762      304.47421     -2791.1855      7482.3094      5302.5364      12784.846      156858.98      42.804865      42.804865      85.609729          16040 
     52000   3549.365       302584.23      269.60732      302949.39      302395.4       302407.92     -731.13611     -1198.2919     -602.27391      7358.5559      5359.2055      12717.761      156661         42.786849      42.786849      85.573697          16040 
     53000   3590.1406      302738.18      276.02459      304083.66      302931         301199.88     -898.82642     -547.496       -2087.2949      7443.0919      5304.2755      12747.367      156751.14      42.795053      42.795053      85.590106          16040 
     54000   3589.5804      301347.74      282.44137      301539.22      301608.23      300895.76     -2883.3913      3390.2573      307.46652      7441.9305      5372.1351      12814.066      156833.84      42.802578      42.802578      85.605156          16040 
     55000   3570.6032      302172.95      288.85844      303226.71      301001.97      302290.17      401.11663     -251.93795     -663.22766      7402.5869      5332.9296      12735.517      156739.05      42.793953      42.793953      85.587906          16040 
     56000   3627.5941      302128.61      295.27402      300990.4       302635.27      302760.16     -2768.8043      2249.0862      2071.9049      7520.7407      5322.8403      12843.581      156791.26      42.798704      42.798704      85.597408          16040 
     57000   3614.3311      302764.48      301.69054      301784.49      304530.52      301978.42      379.36118     -326.66452      1749.1233      7493.2438      5305.7915      12799.035      156810.41      42.800446      42.800446      85.600893          16040 
     58000   3589.9106      300502.35      308.10634      300603.36      299625.91      301277.78      1689.602      -2220.9944     -1405.8499      7442.6151      5386.4423      12829.057      156895.83      42.808217      42.808217      85.616434          16040 
     59000   3582.9421      300287.57      314.52224      301402.75      298765.14      300694.8      -897.43211      840.19721     -2766.4474      7428.1679      5376.9193      12805.087      156957.69      42.813841      42.813841      85.627683          16040 
     60000   3601.9685      300632.29      320.93972      301227.93      299929.82      300739.13      327.16587     -1366.2899      1678.8084      7467.6135      5170.3602      12637.974      156843.37      42.803445      42.803445      85.60689           16040 
     61000   3619.1255      301112.09      327.3563       301949.44      301276.53      300110.31     -892.42103     -18.181761     -947.90246      7503.1835      5214.4401      12717.624      156843.03      42.803414      42.803414      85.606827          16040 
     62000   3561.6328      299018.63      333.77082      298841.51      299072.21      299142.17      663.92219      1942.104       109.05975      7383.9895      5181.9044      12565.894      156953.21      42.813434      42.813434      85.626869          16040 
     63000   3601.2133      300705.61      340.18602      301252.33      300323.01      300541.5       1491.2925     -709.74861      455.93943      7466.048       5274.9287      12740.977      156909.67      42.809476      42.809476      85.618951          16040 
     64000   3617.7284      303329.5       346.60086      304149.92      302730.84      303107.75     -2142.763      -1086.154       245.68157      7500.2871      5304.5531      12804.84       156806.51      42.800092      42.800092      85.600184          16040 
     65000   3612.2949      302673.79      353.01726      301957.25      302949.41      303114.71     -2411.1635      3579.53        3657.5714      7489.0223      5334.4956      12823.518      156861         42.805048      42.805048      85.610097          16040 
     66000   3604.0892      303471.53      359.43877      305317.93      302773.84      302322.81     -205.70862     -1957.3157     -1873.2617      7472.0103      5301.2274      12773.238      156693.9       42.789843      42.789843      85.579686          16040 
     67000   3576.0829      301615.58      365.85509      302429.88      301221.33      301195.55     -1036.0569      243.87429      2559.6953      7413.9474      5405.6635      12819.611      156838.8       42.803029      42.803029      85.606059          16040 
     68000   3624.5112      301251.85      372.27322      299790.42      302035.16      301929.97      413.15996      269.12878     -839.18376      7514.3492      5291.5643      12805.914      156824.77      42.801752      42.801752      85.603505          16040 
     69000   3591.523       301840.62      378.68995      303669         301075.85      300777.02      2412.0589      396.22573     -652.12492      7445.958       5341.2853      12787.243      156840.74      42.803206      42.803206      85.606411          16040 
     70000   3622.6663      301434.2       385.10721      300499.38      302682.89      301120.31     -1732.1287     -938.6168      -1204.1883      7510.5243      5327.8462      12838.371      156930.45      42.811365      42.811365      85.62273           16040 
     71000   3578.7301      296477.1       391.52529      297589.37      294714.08      297127.85      2332.6097     -1048.0525     -901.28122      7419.4357      5264.4031      12683.839      157022.01      42.819689      42.819689      85.639378          16040 
     72000   3579.6467      296704.9       397.94607      294877.1       297229.41      298008.18      484.14186      869.803       -76.458872      7421.3359      5239.6004      12660.936      157033.62      42.820745      42.820745      85.64149           16040 
     73000   3610.6753      295240.41      404.36387      295435.14      294574.44      295711.64      827.71248     -228.94467      1583.9537      7485.6646      5247.0056      12732.67       157090.08      42.825876      42.825876      85.651752          16040 
     74000   3583.6175      296723.6       410.77969      295393.13      297849.98      296927.69     -602.59377      1408.9096     -685.74977      7429.5681      5298.5583      12728.126      157067.47      42.823822      42.823822      85.647643          16040 
     75000   3559.6574      296824.36      417.19591      296294.7       298771.98      295406.42      2752.4511      1445.2291      75.337422      7379.8941      5215.3507      12595.245      156859.46      42.804908      42.804908      85.609817          16040 
     76000   3580.0632      298696.53      423.61435      298248.71      299780.2       298060.69      54.673168      798.84452     -1498.0194      7422.1995      5236.1851      12658.385      156935.91      42.811861      42.811861      85.623723          16040 
     77000   3618.7838      298665.42      430.02836      298733.09      299665.35      297597.83      1494.406       3154.3874     -167.36908      7502.4751      5264.2925      12766.768      157063         42.823415      42.823415      85.646831          16040 
     78000   3587.4787      299892.01      436.44532      299734.44      301346.21      298595.38     -1794.1398      1037.5696      827.74708      7437.5733      5288.3088      12725.882      156858.78      42.804847      42.804847      85.609694          16040 
     79000   3582.0188      303412.86      442.86099      302396.75      304057.35      303784.49     -693.90617     -2511.9481     -661.18804      7426.2538      5310.056       12736.31       156654.51      42.786257      42.786257      85.572515          16040 
     80000   3608.0619      302622.31      449.27702      301477.88      304034.65      302354.4      -2934.5023     -68.8229        3371.3058      7480.2464      5342.948       12823.194      156745.13      42.794506      42.794506      85.589012          16040 
     81000   3603.9496      300648.61      455.69537      300040.77      301114.81      300790.24      2204.8537     -1079.0307     -1781.6889      7471.7207      5253.0764      12724.797      156860.8       42.80503       42.80503       85.61006           16040 
     82000   3622.1376      298306.33      462.11315      297427.89      297241.64      300249.45     -73.539589      1025.5786      3077.1315      7509.4282      5295.1603      12804.589      156987.02      42.816509      42.816509      85.633017          16040 
     83000   3619.5241      297434.44      468.52934      296312.07      296568.54      299422.73     -3043.5632     -1820.9739      912.94119      7504.0099      5215.0417      12719.052      157015.99      42.819142      42.819142      85.638284          16040 
     84000   3590.6112      299664.84      474.94602      299274.43      299724.69      299995.4      -4690.2803      2246.6054     -586.50955      7444.0677      5225.3221      12669.39       156871.65      42.806017      42.806017      85.612034          16040 
     85000   3577.4592      296759.63      481.36754      297909.71      296132.13      296237.04      1162.1453      607.38803     -1821.2247      7416.8008      5289.9707      12706.771      157025.81      42.820035      42.820035      85.64007           16040 
     86000   3565.6004      298437.33      487.78658      299525.7       298794.07      296992.21     -1892.9062      3341.2694     -586.61295      7392.2152      5227.8104      12620.026      156905.81      42.809124      42.809124      85.618248          16040 
     87000   3612.3634      300093.07      494.20546      301551.69      300727.04      298000.47      296.62278      3223.682       2912.4996      7489.1643      5272.6656      12761.83       156885.74      42.807299      42.807299      85.614598          16040 
     88000   3605.0676      301812.63      500.62144      302337.28      302690.24      300410.36     -1772.0437      271.13916     -1838.5253      7474.0386      5203.1166      12677.155      156698.94      42.790302      42.790302      85.580605          16040 
     89000   3600.2737      300762.43      507.0386       301227.31      300423.77      300636.2      -258.26164      163.43978      1853.5418      7464.0999      5237.9567      12702.057      156755.74      42.795472      42.795472      85.590944          16040 
     90000   3613.4728      304089.14      513.45474      303773.32      305482.95      303011.16     -177.67007      2359.2731      1990.7393      7491.4643      5363.0549      12854.519      156643.69      42.785272      42.785272      85.570544          16040 
     91000   3603.8293      306190.83      519.87171      304075.48      306849.77      307647.26     -306.73825     -2761.7582     -2210.2438      7471.4714      5302.8728      12774.344      156531.52      42.775057      42.775057      85.550114          16040 
     92000   3602.1774      303530.91      526.28682      303942.19      303030.05      303620.48      1156.0491      1016.3294     -822.94672      7468.0468      5283.5125      12751.559      156720.28      42.792245      42.792245      85.58449           16040 
     93000   3611.3504      300681.51      532.70467      300392.98      300315.22      301336.34      1914.9947     -556.33575     -1121.4403      7487.0642      5349.071       12836.135      156890.88      42.807766      42.807766      85.615533          16040 
     94000   3586.354       300502.33      539.12389      300533.15      300770.01      300203.83     -1188.2794      285.6475       649.15202      7435.2416      5273.0867      12708.328      156840.97      42.803227      42.803227      85.606453          16040 
     95000   3646.2301      298918.25      545.53993      299257.08      299111.21      298386.45     -144.47467     -741.88983     -268.6927       7559.3769      5261.9611      12821.338      156964.33      42.814446      42.814446      85.628891          16040 
     96000   3564.375       303131.14      551.95567      303791.5       303912.17      301689.75      3203.2745     -237.29148      4322.4187      7389.6746      5324.1222      12713.797      156657.33      42.786515      42.786515      85.573029          16040 
     97000   3628.0732      303789.28      558.37203      304687.97      302669.09      304010.79     -215.37024      3137.1996     -2694.838       7521.7339      5340.8679      12862.602      156710.78      42.79138       42.79138       85.582761          16040 
     98000   3658.6247      307813.21      564.78827      305004.21      310510.91      307924.5       1265.7896      3085.9772      306.2253       7585.0733      5292.7564      12877.83       156505.54      42.772691      42.772691      85.545382          16040 
     99000   3588.4802      302060         571.20396      301041.99      303932.33      301205.66     -480.33705      400.02827      360.20661      7439.6495      5347.9464      12787.596      156763.59      42.796186      42.796186      85.592373          16040 
    100000   3595.4453      300967.94      577.62407      301635.93      300487.69      300780.19      1363.9929     -731.00405     -1601.2216      7454.0896      5187.6463      12641.736      156694.06      42.789858      42.789858      85.579716          16040 
    101000   3578.3719      300487.05      584.03785      299940.49      301796.45      299724.19      29.185951      3239.4416     -1795.6594      7418.693       5183.7991      12602.492      156816.13      42.800967      42.800967      85.601933          16040 
    102000   3608.3662      299240.62      590.45314      299812.85      298669.89      299239.12      4102.1929     -1313.4281      1612.623       7480.8774      5261.7974      12742.675      156921.29      42.810532      42.810532      85.621063          16040 
    103000   3624.7688      300745.83      596.86862      299884.83      300379.3       301973.36     -296.28574     -1833.3042      1793.2171      7514.8833      5193.2597      12708.143      156808.91      42.80031       42.80031       85.60062           16040 
    104000   3647.8892      300971.19      603.28652      299835.29      301656.08      301422.2       137.39872     -618.06917     -39.647594      7562.8165      5242.1397      12804.956      156877.95      42.806591      42.806591      85.613181          16040 
    105000   3635.2059      302119.82      609.70097      301967.92      300639.73      303751.81      281.47088      157.67317     -2735.5802      7536.5215      5198.2008      12734.722      156709.46      42.79126       42.79126       85.58252           16040 
    106000   3602.3336      301855.78      616.11727      302325.88      301984.38      301257.08      1234.0662      1461.9041      681.59132      7468.3705      5283.5524      12751.923      156761.79      42.796022      42.796022      85.592044          16040 
    107000   3623.5972      299533.73      622.53406      299616.42      299694.06      299290.7       2629.7267     -1416.2875     -3094.8704      7512.4542      5308.4197      12820.874      156974.71      42.815389      42.815389      85.630778          16040 
    108000   3614.6328      300818.65      628.95073      300332.28      300610.09      301513.57      2705.8994      741.67197     -1278.4829      7493.8692      5195.0683      12688.938      156788.04      42.798411      42.798411      85.596822          16040 
    109000   3601.5177      297062.3       635.36808      296314.52      297626.5       297245.88     -915.31081      3910.6837     -2597.0852      7466.6789      5276.5963      12743.275      157081.91      42.825134      42.825134      85.650268          16040 
    110000   3609.6849      298227.7       641.78249      298254.73      297608.03      298820.33      1949.0442     -749.89764     -2186.7628      7483.6113      5215.2952      12698.907      157014.85      42.819039      42.819039      85.638077          16040 
    111000   3535.4972      299121.11      648.19938      299286.4       299246.96      298829.97     -868.43477     -248.96941      759.06585      7329.805       5232.4797      12562.285      156885.97      42.807319      42.807319      85.614639          16040 
    112000   3605.5773      298980.18      654.61491      298418.75      299938.2       298583.59     -1820.847       1871.7276     -819.04646      7475.0954      5254.1878      12729.283      156957.03      42.813782      42.813782      85.627563          16040 
    113000   3613.1491      297129.08      661.03048      298377.38      295138.71      297871.15     -1418.715      -648.97523      904.77966      7490.7932      5197.5695      12688.363      157028.24      42.820256      42.820256      85.640512          16040 
    114000   3566.5985      292342.56      667.44543      292068.06      293279.79      291679.84      2905.3134      366.91723     -3244.1575      7394.2844      5165.4582      12559.743      157326.47      42.847347      42.847347      85.694694          16040 
    115000   3596.8528      296635.77      673.86086      295628.51      297773.9       296504.92      995.03149     -3397.1712     -508.20175      7457.0077      5198.1884      12655.196      157148.94      42.831224      42.831224      85.662447          16040 
    116000   3568.6834      297718.08      680.27791      299612.17      295944.63      297597.43     -1780.0189     -562.83875      237.90363      7398.6067      5207.1512      12605.758      157064.26      42.823529      42.823529      85.647059          16040 
    117000   3572.1559      298816.59      686.69444      298552.69      300125.93      297771.16      1848.4768     -1104.9754      2314.6933      7405.8059      5329.1388      12734.945      156964.03      42.814418      42.814418      85.628837          16040 
    118000   3636.3726      300544.38      693.10949      301886.79      299678.47      300067.86     -3516.3051     -286.41105      1581.6995      7538.9402      5261.9584      12800.899      156908.69      42.809386      42.809386      85.618773          16040 
    119000   3595.7176      303437.35      699.52613      304608.86      303140.66      302562.54      2575.1779      512.29945      1072.9484      7454.6542      5242.6959      12697.35       156714.59      42.791727      42.791727      85.583454          16040 
    120000   3594.3116      303494.05      705.94263      303169.34      302772.43      304540.39     -499.10498     -1197.9031      1532.7897      7451.7393      5280.9778      12732.717      156677.49      42.78835       42.78835       85.5767            16040 
    121000   3605.759       300482.06      712.35973      299115.62      300297.5       302033.05      1814.6465      719.55901      1119.2451      7475.4721      5085.7915      12561.264      156734.78      42.793564      42.793564      85.587128          16040 
    122000   3603.9363      296473.4       718.77712      295078.28      296375.57      297966.33     -173.30078      109.27659      294.38418      7471.6933      5247.497       12719.19       157055.59      42.822742      42.822742      85.645483          16040 
    123000   3565.9857      298229.87      725.19353      297439.07      297375.72      299874.82     -54.541372     -776.70279      1694.92        7393.0138      5195.9895      12589.003      156924.39      42.810814      42.810814      85.621628          16040 
    124000   3569.2849      299291.46      731.61041      298909.18      299480.91      299484.29     -28.527966     -1395.543      -1060.3157      7399.8539      5266.1052      12665.959      156951.42      42.813272      42.813272      85.626543          16040 
    125000   3613.5639      297505.94      738.02576      296906.92      298157.82      297453.07      3024.3526      2638.0084      936.64479      7491.6532      5190.2879      12681.941      157038.4       42.82118       42.82118       85.642359          16040 
    126000   3586.7383      298927.53      744.4413       297923.75      299788.82      299070.02      1018.709       2887.2593     -81.871811      7436.0382      5160.7288      12596.767      156879.19      42.806703      42.806703      85.613406          16040 
    127000   3592.8524      298942.95      750.85812      300097.48      297552.78      299178.58      1200.1317     -1784.4347     -1835.1627      7448.714       5214.3729      12663.087      156935.19      42.811796      42.811796      85.623592          16040 
    128000   3612.5098      299826.42      757.27563      299242.98      299343.66      300892.61      1183.8797      2428.9145      281.72991      7489.4677      5218.9577      12708.425      156847.29      42.803802      42.803802      85.607604          16040 
    129000   3627.5984      299649.89      763.69253      298275.04      301301.75      299372.88     -2535.8977     -42.175432     -2719.9685      7520.7495      5257.5348      12778.284      156847.43      42.803815      42.803815      85.607629          16040 
    130000   3577.1755      301056.82      770.10984      300920.59      301169.22      301080.65      132.67653      762.31703      3285.3556      7416.2126      5257.0963      12673.309      156801.33      42.79962       42.79962       85.599241          16040 
    131000   3635.5338      299834.99      776.52504      299610.67      299805.38      300088.91     -849.50594      1575.5326     -900.21796      7537.2013      5202.9463      12740.148      156948.41      42.812998      42.812998      85.625996          16040 
    132000   3636.0862      298126.83      782.94031      298077.15      297748.44      298554.9       1523.9834      3253.3244     -1821.7867      7538.3464      5140.2286      12678.575      156950.7       42.813206      42.813206      85.626412          16040 
    133000   3574.5586      301205.09      789.35497      301381.44      301084.42      301149.4      -2065.8242     -679.75145     -813.49373      7410.7872      5305.2807      12716.068      156751.19      42.795058      42.795058      85.590116          16040 
    134000   3636.5931      301846.67      795.77038      303280.6       301132.11      301127.29     -1443.0749     -340.78152     -2447.2951      7539.3973      5213.7157      12753.113      156679.05      42.788492      42.788492      85.576983          16040 
    135000   3538.9559      303513.9       802.1866       300275.93      303412.66      306853.11     -845.26364      1775.7353     -1943.0731      7336.9756      5307.8324      12644.808      156637.28      42.784689      42.784689      85.569378          16040 
    136000   3599.7488      303184.99      808.60302      302128.29      303520.97      303905.7       1196.753       391.27485     -2529.2584      7463.0116      5310.1709      12773.183      156703.06      42.790678      42.790678      85.581355          16040 
    137000   3602.2112      307331.81      815.01916      307331.23      307213.43      307450.77      49.962289     -2351.2587     -8.6591555      7468.1167      5188.8151      12656.932      156402.49      42.763301      42.763301      85.526602          16040 
    138000   3613.2145      305488.16      821.43566      305844.3       304728.5       305891.69     -292.7317      -466.95241      136.81805      7490.9289      5391.7652      12882.694      156709.36      42.791251      42.791251      85.582502          16040 
    139000   3621.9288      298995.71      827.85079      297390.93      300578.86      299017.34     -1648.4062      2784.9443     -1143.3999      7508.9953      5237.6246      12746.62       156898.19      42.808431      42.808431      85.616863          16040 
    140000   3538.0028      298032.33      834.26667      298854.74      298210.11      297032.13     -1344.1248      3107.7816      2726.9069      7334.9997      5233.9505      12568.95       156846.19      42.803702      42.803702      85.607403          16040 
    141000   3588.1125      298057.57      840.68283      297261.78      298438.43      298472.52      2315.216      -3291.2028     -378.27971      7438.8873      5235.8364      12674.724      156978.33      42.815718      42.815718      85.631437          16040 
    142000   3573.7649      296542.59      847.09918      295843.02      296972.22      296812.53      3064.4235      14.922974      1553.4486      7409.1418      5210.3559      12619.498      157059.4       42.823088      42.823088      85.646176          16040 
    143000   3606.8429      289264.81      853.51495      289441.89      287961.87      290390.66     -516.63826      336.05821      1311.4721      7477.7192      5153.8775      12631.597      157490.53      42.862235      42.862235      85.72447           16040 
    144000   3556.3472      295664.62      859.93082      296027.69      295183.43      295782.75      812.47708      2451.9031     -245.81509      7373.0313      5207.8559      12580.887      157105.65      42.827291      42.827291      85.654582          16040 
    145000   3626.8653      297293.65      866.34531      296409.15      299867.91      295603.89      2132.4603      183.53587      580.27942      7519.2297      5161.5366      12680.766      157014.37      42.818995      42.818995      85.63799           16040 
    146000   3575.3104      298560.66      872.75923      299684.59      297852.51      298144.88      335.27543     -870.20599     -1189.6928      7412.346       5239.626       12651.972      156938.63      42.812109      42.812109      85.624217          16040 
    147000   3629.7029      296799.82      879.17475      297527.91      295831.47      297040.09      1794.7602      1550.1496      1655.7126      7525.1125      5192.2138      12717.326      157031.08      42.820514      42.820514      85.641028          16040 
    148000   3570.9173      298754.76      885.59009      299286.82      297799.33      299178.13     -4225.1347     -857.16825     -17.207286      7403.2382      5206.6786      12609.917      156918.79      42.810305      42.810305      85.620609          16040 
    149000   3570.3293      297018.11      892.00589      295320.54      297744.2       297989.58     -677.8809       98.262818      658.96819      7402.0191      5241.338       12643.357      156968.8       42.814852      42.814852      85.629703          16040 
    150000   3613.6473      302117.76      898.4222       301960.89      302780.43      301611.96     -501.10377     -1638.3242     -65.192006      7491.8261      5197.4509      12689.277      156766.32      42.796435      42.796435      85.592869          16040 
    151000   3603.2922      300533.2       904.83622      300820.19      301305.34      299474.06     -2137.7534      1438.6477      691.56341      7470.3579      5316.6829      12787.041      156923.96      42.810775      42.810775      85.62155           16040 
    152000   3600.1968      301280.46      911.25092      301551.2       301465.68      300824.49      365.41727     -1487.0331     -317.23058      7463.9404      5170.4142      12634.355      156847.97      42.803863      42.803863      85.607726          16040 
    153000   3630.4786      299401.73      917.66728      301557.64      300636.22      296011.33     -971.88804      691.92802     -1406.6138      7526.7209      5185.4679      12712.189      156942.04      42.812418      42.812418      85.624837          16040 
    154000   3571.0277      300057.12      924.08318      298691.46      300353.44      301126.44      550.90066     -1154.2579      882.23094      7403.467       5187.903       12591.37       156750.45      42.794991      42.794991      85.589981          16040 
    155000   3589.3361      299529.15      930.49825      299665.4       298879.78      300042.26     -144.96862      101.76485     -1955.3663      7441.4241      5260.0801      12701.504      156963.92      42.814409      42.814409      85.628817          16040 
    156000   3606.1936      297448.42      936.91309      297096.94      298088.15      297160.18     -104.8407       674.94887     -3902.4453      7476.3731      5166.0142      12642.387      157063.83      42.82349       42.82349       85.646981          16040 
    157000   3604.913       294963.91      943.33095      294452.82      297247.99      293190.91      1610.6114      2008.8395      2703.4593      7473.7182      5279.3965      12753.115      157267.26      42.841971      42.841971      85.683942          16040 
    158000   3575.8134      296553.71      949.74592      295571.22      298779.76      295310.15      774.93969      100.76989     -820.06583      7413.3888      5111.206       12524.595      156988         42.816598      42.816598      85.633195          16040 
    159000   3580.0805      296956.18      956.16146      296543.56      298328.21      295996.78      1629.5348     -1657.345       1648.8979      7422.2353      5256.5497      12678.785      157062.12      42.823335      42.823335      85.646671          16040 
    160000   3603.7321      299668.69      962.5775       300486.07      299873.54      298646.45     -196.18392     -2752.4598     -1142.7597      7471.27        5188.0101      12659.28       156835.73      42.80275       42.80275       85.6055            16040 
    161000   3614.1091      304558.29      968.99313      304186.72      305958.18      303529.96     -2047.0841      496.55877      1693.6738      7492.7836      5239.0085      12731.792      156607.21      42.781951      42.781951      85.563903          16040 
    162000   3606.5683      303816.78      975.40911      302657.22      304832.98      303960.15     -2369.1061     -1437.8227     -1555.7712      7477.1498      5244.3439      12721.494      156676.45      42.788255      42.788255      85.57651           16040 
    163000   3609.7155      299810.33      981.82666      299688.28      300406.28      299336.42     -594.04112      568.99894      2450.2038      7483.6747      5241.2998      12724.974      156891.59      42.807831      42.807831      85.615662          16040 
    164000   3597.2871      297482.33      988.24318      298336.85      296775.99      297334.14      2732.0215     -292.66611      1311.2701      7457.9082      5155.658       12613.566      156927.88      42.811131      42.811131      85.622262          16040 
    165000   3623.5779      295465.05      994.65904      296115.41      296698.32      293581.41     -1230.2559     -1639.58        1171.7407      7512.4142      5199.6431      12712.057      157160.57      42.832281      42.832281      85.664562          16040 
    166000   3618.222       296676.66      1001.0764      294817.05      296658.28      298554.64      1862.0963      2280.3151      2429.8365      7501.3103      5263.6156      12764.926      157136.37      42.830082      42.830082      85.660165          16040 
    167000   3591.2873      298747.21      1007.4905      298880.7       299843.23      297517.7       1780.6486     -119.33318      955.08725      7445.4692      5217.2461      12662.715      156935.75      42.811847      42.811847      85.623694          16040 
    168000   3616.6261      301278.15      1013.9056      301832.34      301374.62      300627.48     -2002.0042     -1664.8391     -1133.8851      7498.0019      5086.6999      12584.702      156796.09      42.799143      42.799143      85.598286          16040 
    169000   3577.4922      301987.84      1020.3207      300990.85      302213.3       302759.36      1274.3193      305.1951       1276.8424      7416.8693      5237.3908      12654.26       156830.35      42.80226       42.80226       85.604521          16040 
    170000   3575.8765      301054.67      1026.7356      302075.45      300242.18      300846.39      1689.2729     -245.56997      64.12813       7413.5196      5265.7922      12679.312      156792.83      42.798847      42.798847      85.597693          16040 
    171000   3601.5784      301361.51      1033.1515      302565.55      299777.73      301741.26      1612.4567      1326.815       211.65919      7466.8049      5205.6219      12672.427      156854.35      42.804443      42.804443      85.608887          16040 
    172000   3640.1425      300470.54      1039.5654      300574.58      301472.33      299364.7      -1233.0122     -1265.3231     -762.6699       7546.756       5207.7706      12754.527      156923.98      42.810776      42.810776      85.621553          16040 
    173000   3587.761       303267.92      1045.9797      304315.77      302376.67      303111.32      2723.0371      1170.9217      1765.1163      7438.1586      5236.5652      12674.724      156774.85      42.797211      42.797211      85.594422          16040 
    174000   3626.336       303730.44      1052.3956      304845.62      302982         303363.71     -298.2014      -3805.0677      668.11075      7518.1324      5297.4109      12815.543      156750.77      42.79502       42.79502       85.59004           16040 
    175000   3589.4469      302065.63      1058.8101      301150.64      302888.49      302157.76     -3309.3821      4137.7403     -1417.6129      7441.6537      5200.8054      12642.459      156691.28      42.789605      42.789605      85.579211          16040 
    176000   3644.79        299689.1       1065.2253      299806.81      299077.14      300183.35      296.73935     -186.54886     -746.00858      7556.3913      5185.668       12742.059      156996.58      42.817378      42.817378      85.634756          16040 
    177000   3595.7504      298378.91      1071.6425      297185.19      297817.3       300134.23     -1691.4457      44.313106     -460.92569      7454.7221      5185.74        12640.462      157008.08      42.818423      42.818423      85.636846          16040 
    178000   3604.5586      292214.77      1078.0572      293207.22      291963.66      291473.43     -1026.9262      327.9381       651.98244      7472.9835      5102.9187      12575.902      157246.91      42.840123      42.840123      85.680245          16040 
    179000   3593.2188      294361.2       1084.4725      295363.55      294000.24      293719.8       1529.7235      867.61184      112.80051      7449.4737      5166.2686      12615.742      157190.81      42.835028      42.835028      85.670056          16040 
    180000   3565.4988      299637.27      1090.8876      300594.93      299179.84      299137.03     -871.81756     -1172.1691      273.29712      7392.0046      5294.118       12686.123      156909.62      42.809471      42.809471      85.618941          16040 
    181000   3565.8505      302581.29      1097.3039      301164.24      302577.99      304001.65     -1799.6864      838.06538     -953.16873      7392.7337      5208.9835      12601.717      156671.17      42.787774      42.787774      85.575549          16040 
    182000   3584.3575      298490.86      1103.7202      297484.34      299431.96      298556.28     -1090.1329      1194.1579     -1719.1803      7431.1024      5285.4354      12716.538      156897.35      42.808354      42.808354      85.616709          16040 
    183000   3593.6372      303386.78      1110.1359      303212.17      301997.38      304950.81      2012.715       626.65665     -353.07554      7450.3411      5228.9981      12679.339      156697.41      42.790163      42.790163      85.580327          16040 
    184000   3615.3649      305819.06      1116.5516      305241.36      306241.13      305974.7      -1552.6628     -1199.9537     -1069.4051      7495.387       5241.5877      12736.975      156545.37      42.776319      42.776319      85.552637          16040 
    185000   3591.3214      303876         1122.9673      304404.44      303498.81      303724.75     -1174.2335     -2964.5745      2385.3185      7445.5399      5364.266       12809.806      156732.12      42.793323      42.793323      85.586645          16040 
    186000   3602.4658      302532.66      1129.3828      301597.15      302844.48      303156.36     -2291.6558     -2985.0107      978.50614      7468.6445      5243.0859      12711.73       156729.58      42.793091      42.793091      85.586183          16040 
    187000   3581.0949      304732.15      1135.7986      304035.87      307038.9       303121.67     -689.08063     -2236.5067      1165.3657      7424.3383      5275.63        12699.968      156503.37      42.772493      42.772493      85.544987          16040 
    188000   3609.3836      304758.26      1142.2153      305105.45      305353.15      303816.19      2261.2218      2523.8877     -956.45251      7482.9866      5268.2663      12751.253      156607.43      42.781971      42.781971      85.563942          16040 
    189000   3590.1399      301747.99      1148.6306      302457.48      301907.04      300879.45     -3789.8047     -3530.0832      945.64802      7443.0905      5244.7483      12687.839      156743.6       42.794367      42.794367      85.588734          16040 
    190000   3619.0166      300122.16      1155.0443      300343.42      300596.85      299426.21      391.14526      493.4314       23.733526      7502.9578      5189.2128      12692.171      156827.47      42.801998      42.801998      85.603997          16040 
    191000   3620.0459      297974.09      1161.4609      296841.92      297705.41      299374.95      460.93446     -1205.2192     -1718.498       7505.0917      5207.3723      12712.464      157009.93      42.818591      42.818591      85.637182          16040 
    192000   3597.0524      296892.19      1167.8781      294202.13      298376.48      298097.97      1559.435       1726.4731     -2781.396       7457.4214      5151.5132      12608.935      156991.01      42.816871      42.816871      85.633742          16040 
    193000   3582.769       296740.17      1174.2929      295457.31      299556.22      295206.98     -1864.0509     -1908.1651      3729.0181      7427.809       5218.5249      12646.334      157057.6       42.822924      42.822924      85.645848          16040 
    194000   3558.7906      291913.11      1180.7083      292943.41      290488.38      292307.54      119.76635     -525.6725      -1580.0546      7378.0971      5157.1841      12535.281      157287.96      42.84385       42.84385       85.687701          16040 
    195000   3587.6749      296186.13      1187.125       295874.03      297056.74      295627.62      2470.8031      2025.1374      231.16354      7437.98        5188.0079      12625.988      157096.09      42.826422      42.826422      85.652845          16040 
    196000   3615.4874      298415.09      1193.5414      297381.99      300382.63      297480.64     -2021.9369     -3042.5286     -2255.2733      7495.6411      5218.2897      12713.931      156959.4       42.813997      42.813997      85.627995          16040 
    197000   3604.1036      298716.32      1199.9574      298980.27      296782.62      300386.05     -2703.3012      487.24456      367.09939      7472.04        5270.9785      12743.018      156936.09      42.811878      42.811878      85.623755          16040 
    198000   3601.2636      305238.47      1206.3737      305674.58      305319.13      304721.68     -590.33214     -247.80745      2690.8305      7466.1522      5231.8934      12698.046      156555.27      42.777221      42.777221      85.554442          16040 
    199000   3619.6544      305942.64      1212.7897      305362.44      307226.65      305238.84      365.64429     -2343.0963     -2384.0446      7504.28        5389.4957      12893.776      156578.14      42.779304      42.779304      85.558608          16040 
    200000   3602.0904      303330.33      1219.2113      303249.57      301454.57      305286.84     -295.75308     -912.27843      786.70274      7467.8664      5254.7461      12722.612      156542.63      42.776069      42.776069      85.552138          16040 
    201000   3604.186       298197.92      1225.6262      298015.55      298106.88      298471.35      829.2766       1485.2127     -1225.3374      7472.2108      5227.4816      12699.692      156847.12      42.803786      42.803786      85.607573          16040 
    202000   3558.431       299605.62      1232.0425      301694.43      297930.4       299192.02     -2471.23        585.15141     -424.5295       7377.3515      5239.9825      12617.334      156806.34      42.800077      42.800077      85.600153          16040 
    203000   3585.4149      298385.89      1238.457       298173.32      299364.14      297620.21     -879.76304      589.1903      -1169.9864      7433.2946      5208.4129      12641.708      156929.57      42.811285      42.811285      85.62257           16040 
    204000   3599.6177      297816.3       1244.872       297225.17      297841.44      298382.29      825.34192      636.96962     -585.09972      7462.74        5119.5999      12582.34       156962.02      42.814236      42.814236      85.628472          16040 
    205000   3568.0228      293482.65      1251.2871      294173.68      292187.22      294087.06     -797.64319     -2064.0212      1083.651       7397.2372      5217.8898      12615.127      157207.82      42.836573      42.836573      85.673146          16040 
    206000   3631.0588      293823.06      1257.7026      295075.36      293751.22      292642.59      731.47435     -438.68591      724.40595      7527.9238      5071.8082      12599.732      157221.31      42.837798      42.837798      85.675596          16040 
    207000   3569.6026      295058.79      1264.1184      295163.09      296213.79      293799.49      682.99152     -986.73689     -576.98086      7400.5125      5245.2827      12645.795      157122.82      42.828851      42.828851      85.657701          16040 
    208000   3576.1854      300747.37      1270.5334      300775.78      299633.09      301833.25      806.86175      592.13498      1094.1507      7414.1599      5174.343       12588.503      156770.76      42.796839      42.796839      85.593677          16040 
    209000   3588.9215      302136.39      1276.9489      302561.59      303045.12      300802.46      3902.2031     -547.04053     -3384.2189      7440.5645      5359.4516      12800.016      156748.12      42.794778      42.794778      85.589557          16040 
    210000   3615.0525      304361.26      1283.3652      304195.24      303454.74      305433.78      337.65903     -303.53484      1001.1359      7494.7393      5230.6242      12725.364      156596.21      42.78095       42.78095       85.561899          16040 
    211000   3633.7914      301156.21      1289.7815      301185.6       302890.55      299392.48      263.95048      1758.5745      3819.0283      7533.5889      5223.8629      12757.452      156837.06      42.802871      42.802871      85.605741          16040 
    212000   3595.8402      301685.5       1296.1977      300281.63      301770.84      303004.02     -1114.019      -30.08798      -4130.7359      7454.9084      5163.3941      12618.302      156697.3       42.790153      42.790153      85.580306          16040 
    213000   3576.5397      301756.81      1302.6139      301653.5       301809.21      301807.72      1794.5802     -1613.5303     -2183.0086      7414.8946      5227.2611      12642.156      156782.64      42.797919      42.797919      85.595839          16040 
    214000   3606.6091      301418.81      1309.0302      300494.21      301182.31      302579.9       58.470153     -1126.1754      401.76237      7477.2345      5326.6144      12803.849      156844.85      42.80358       42.80358       85.607159          16040 
    215000   3568.7734      302398.4       1315.4461      303449.53      301507.62      302238.06     -794.40497      1638.1594     -2474.103       7398.7935      5269.9978      12668.791      156709.83      42.791294      42.791294      85.582588          16040 
    216000   3605.8553      299197.57      1321.8625      299802.17      299069.39      298721.14      190.57534     -1451.5176     -2006.3572      7475.6718      5260.6518      12736.324      157008.46      42.818458      42.818458      85.636915          16040 
    217000   3601.7009      299794.19      1328.2785      299457.2       298379.81      301545.56     -609.74319      0.96406056    -639.97786      7467.0588      5165.4875      12632.546      156830.36      42.802261      42.802261      85.604522          16040 
    218000   3589.3559      299765.77      1334.6957      302054.82      295994.19      301248.28      254.14224      786.67841      1199.3352      7441.4651      5153.3521      12594.817      156739.41      42.793985      42.793985      85.587971          16040 
    219000   3610.0151      299339.81      1341.1122      299012.19      300009.2       298998.05      1589.0702     -1693.6322      823.12443      7484.2959      5235.2635      12719.559      156879.5       42.806732      42.806732      85.613463          16040 
    220000   3603.6713      297806.59      1347.5293      298808.65      297691.77      296919.33      1506.6152      175.70996     -136.55294      7471.1439      5062.5202      12533.664      156827.22      42.801976      42.801976      85.603952          16040 
    221000   3610.7697      298027         1353.9456      297534.92      298518.87      298027.22     -1501.848      -2658.536      -1965.926       7485.8602      5157.4475      12643.308      157009.42      42.818545      42.818545      85.637089          16040 
    222000   3639.5682      296762.77      1360.3611      296148.38      297054.32      297085.62      1175.1767     -1915.3488     -905.0245       7545.5654      5140.897       12686.462      156966.2       42.814616      42.814616      85.629232          16040 
    223000   3607.9765      300102.99      1366.7781      299274.81      299911.56      301122.59      502.09826     -1152.2128      575.33043      7480.0695      5184.9481      12665.018      156854.89      42.804493      42.804493      85.608986          16040 
    224000   3581.6637      301055.55      1373.1934      301004.36      300393.65      301768.64      1221.5436     -1502.7453     -1908.315       7425.5177      5174.8961      12600.414      156785.37      42.798168      42.798168      85.596335          16040 
    225000   3630.8058      298881.49      1379.6091      297203.83      299184.68      300255.97     -3396.8297     -4447.6206     -2292.8775      7527.3991      5273.4869      12800.886      156963.35      42.814357      42.814357      85.628714          16040 
    226000   3609.5698      302820.26      1386.0242      303041.27      303484.04      301935.47     -1350.1264     -1426.6774     -559.24134      7483.3726      5244.9944      12728.367      156642.27      42.785144      42.785144      85.570287          16040 
    227000   3597.773       305470.75      1392.4401      306020.74      305811.92      304579.61      442.7272      -1738.7137     -53.835784      7458.9155      5209.8925      12668.808      156555.17      42.777211      42.777211      85.554423          16040 
    228000   3593.5921      303238.89      1398.8565      303206.39      303103.52      303406.76      80.422304      1309.6715     -1073.6594      7450.2476      5294.1361      12744.384      156706.96      42.791032      42.791032      85.582064          16040 
    229000   3645.9136      299550.98      1405.2726      300188.42      298941.3       299523.22      804.7382      -3293.6973      2588.4601      7558.7208      5198.2658      12756.987      156890.21      42.807705      42.807705      85.615411          16040 
    230000   3595.0574      297683.24      1411.6882      295898.72      297836.75      299314.24     -1339.68       -852.54258      238.55237      7453.2854      5160.8635      12614.149      156901.12      42.808698      42.808698      85.617395          16040 
    231000   3615.8704      296721.45      1418.1046      295469.8       297200.15      297494.42      279.98882      263.84734     -1083.2563      7496.435       5179.579       12676.014      157104.28      42.827166      42.827166      85.654333          16040 
    232000   3595.0613      298318.57      1424.5212      298649.27      299583.32      296723.12      3099.6307      2030.5802     -1804.0876      7453.2936      5175.1192      12628.413      156865.31      42.805441      42.805441      85.610881          16040 
    233000   3633.4774      302670.71      1430.9373      301657.5       303530.8       302823.83     -3435.1578     -714.51658     -569.98112      7532.938       5143.5288      12676.467      156728.45      42.792988      42.792988      85.585976          16040 
    234000   3609.0022      301549.73      1437.3537      300725.64      301674.9       302248.64      574.13183     -288.79152      2290.0597      7482.1958      5202.9022      12685.098      156750.84      42.795026      42.795026      85.590052          16040 
    235000   3613.6882      302087.53      1443.7703      301747.34      301230.02      303285.23      462.13969     -2085.258       2314.1584      7491.9109      5131.3777      12623.289      156603.42      42.781606      42.781606      85.563211          16040 
    236000   3594.9348      301517.62      1450.1879      302699.73      301756.32      300096.8       1701.9162     -764.27507     -744.04822      7453.0313      5218.3719      12671.403      156780.37      42.797713      42.797713      85.595427          16040 
    237000   3578.9036      300324.89      1456.6022      299862.86      301235.7       299876.12      2574.7203      118.62071      3089.7567      7419.7954      5270.4959      12690.291      156818.97      42.801225      42.801225      85.60245           16040 
    238000   3659.8525      298953.12      1463.0194      298574.79      299285.66      298998.92      83.311514      3497.2938     -1437.748       7587.6189      5182.3025      12769.921      157013.55      42.818921      42.818921      85.637841          16040 
    239000   3584.0968      298511.37      1469.4355      297402.1       299514.35      298617.66     -1893.887      -1131.034      -2524.0058      7430.562       5180.3014      12610.863      156929.62      42.81129       42.81129       85.62258           16040 
    240000   3569.0298      297316.3       1475.8518      297293.01      297739.92      296915.97     -669.56962      1138.5471     -16.678114      7399.325       5062.3261      12461.651      156871.93      42.806043      42.806043      85.612086          16040 
    241000   3637.1151      297281.79      1482.2671      295384.32      299460.75      297000.29     -115.02169      2234.1191      998.74915      7540.4796      5143.5816      12684.061      157043.63      42.821655      42.821655      85.64331           16040 
    242000   3589.0577      296563.16      1488.6842      299279.4       294870.44      295539.63      1959.235      -672.34317     -324.18866      7440.8468      5136.1932      12577.04       156975.14      42.815428      42.815428      85.630856          16040 
    243000   3638.817       298618.95      1495.0998      299418.39      297714.66      298723.79      1669.5626      2128.8988      348.70921      7544.008       5244.9447      12788.953      156908.42      42.809361      42.809361      85.618723          16040 
    244000   3610.7536      301736.51      1501.5154      300329.53      302595.59      302284.41      837.32489      1582.8148     -1426.7852      7485.8269      5139.7234      12625.55       156726.68      42.792827      42.792827      85.585654          16040 
    245000   3572.9405      301175.24      1507.9332      299841.08      301095.88      302588.77     -614.8005       723.7227      -517.24709      7407.4326      5321.4888      12728.921      156799.52      42.799456      42.799456      85.598912          16040 
    246000   3605.1047      306428.37      1514.3466      306127.68      306828         306329.43      126.14599      1730.8827      327.12026      7474.1156      5384.4081      12858.524      156546.92      42.77646       42.77646       85.552921          16040 
    247000   3629.4059      305720.05      1520.7628      307119.61      304521.34      305519.19      1221.5147      1963.1514     -95.572073      7524.4968      5226.9233      12751.42       156528         42.774737      42.774737      85.549474          16040 
    248000   3620.903       301630.22      1527.1791      300760         302564.17      301566.49      1398.9764      546.48919      1548.3416      7506.8686      5148.8052      12655.674      156700.7       42.790462      42.790462      85.580925          16040 
    249000   3570.0934      299000.24      1533.5953      301497.1       297090.57      298413.06     -1871.2841     -1537.8548     -191.60789      7401.5299      5157.354       12558.884      156849.01      42.803958      42.803958      85.607916          16040 
    250000   3574.4201      298230.34      1540.0101      295598.01      298557.83      300535.19      1270.9391      874.0155       28.934793      7410.5002      5205.694       12616.194      156973.47      42.815277      42.815277      85.630554          16040 
    251000   3590.7805      296705.1       1546.4254      297870.06      294373.93      297871.3      -1556.9986     -13.539005      1352.6222      7444.4186      5209.1033      12653.522      157087.53      42.825644      42.825644      85.651288          16040 
    252000   3596.5448      295911.51      1552.8399      296675.79      294990.2       296068.54      518.05475     -2062.2854      1921.3445      7456.3691      5126.7697      12583.139      157068.74      42.823936      42.823936      85.647873          16040 
    253000   3580.4084      294955.83      1559.256       295317.81      294846.25      294703.42      1027.6516      1450.0266      3712.5232      7422.9151      5107.1796      12530.095      157112.99      42.827958      42.827958      85.655915          16040 
    254000   3608.3511      297640.76      1565.6722      297840.5       298529.58      296552.19      1444.1711      193.08282     -980.8597       7480.8459      5141.9264      12622.772      157007.05      42.818329      42.818329      85.636658          16040 
    255000   3597.1868      300193.64      1572.0885      300395.72      299032.4       301152.8       1950.0735      755.26519     -343.69419      7457.7002      5153.4281      12611.128      156815.69      42.800927      42.800927      85.601854          16040 
    256000   3593.5311      299473.74      1578.5041      300183.76      298851.74      299385.71     -239.19688      3081.2627      2300.9724      7450.1212      5240.9733      12691.094      156863.28      42.805256      42.805256      85.610512          16040 
    257000   3587.9431      302708.55      1584.9196      302665.29      303190.7       302269.66     -5027.8754      3418.2874      611.99368      7438.5362      5145.097       12583.633      156611.06      42.782301      42.782301      85.564602          16040 
    258000   3618.3553      305108.99      1591.3354      303715.45      307120.97      304490.57     -4149.2028     -163.13357      602.78057      7501.5868      5244.5581      12746.145      156527.07      42.774652      42.774652      85.549304          16040 
    259000   3593.9612      305121.53      1597.7511      304776.14      304937.85      305650.61     -463.27512      1748.8828     -613.06137      7451.0128      5332.0037      12783.016      156518.88      42.773906      42.773906      85.547812          16040 
    260000   3594.6117      303618.44      1604.1672      302615.55      305881.54      302358.24      103.79425      316.60401     -764.52929      7452.3613      5241.1657      12693.527      156662.83      42.787015      42.787015      85.57403           16040 
    261000   3597.6398      303671.38      1610.5837      302356.39      304888.37      303769.37     -113.80439      2513.5571     -30.400922      7458.6394      5070.7585      12529.398      156645.04      42.785395      42.785395      85.57079           16040 
    262000   3607.6252      301619.33      1616.9987      303620.77      299535.33      301701.89     -800.67251     -796.61624     -1822.1621      7479.3411      5211.8451      12691.186      156783.39      42.797988      42.797988      85.595977          16040 
    263000   3615.9539      306327.19      1623.4141      306552.1       304176.27      308253.19     -635.44938     -1739.8282     -2870.9888      7496.6081      5330.4308      12827.039      156609.63      42.782172      42.782172      85.564343          16040 
    264000   3584.8138      305107.74      1629.8294      307019.24      305493.38      302810.6      -293.84561     -1473.3637     -310.06673      7432.0484      5228.638       12660.686      156476.13      42.770011      42.770011      85.540022          16040 
    265000   3595.4174      303314.8       1636.2447      301445.44      305089.86      303409.1      -659.61566     -544.05705      2038.4519      7454.0319      5260.6971      12714.729      156729.62      42.793094      42.793094      85.586189          16040 
    266000   3622.1652      299379.31      1642.6599      300866.06      297820.63      299451.23      416.9415       61.040478      230.44333      7509.4855      5125.5359      12635.021      156875.33      42.806352      42.806352      85.612704          16040 
    267000   3618.5241      300621.85      1649.0758      299192.04      301919.41      300754.1      -1345.1205      404.05587     -1007.0985      7501.9366      5243.8745      12745.811      156898.92      42.808498      42.808498      85.616996          16040 
    268000   3637.8885      300674.76      1655.4908      300010.53      302361.25      299652.51      641.46826     -1725.2234     -2514.6266      7542.083       5130.5832      12672.666      156842.14      42.803333      42.803333      85.606666          16040 
    269000   3570.8524      300488.67      1661.9069      300727.8       300122.18      300616.03      963.40367     -2780.9028     -2790.2616      7403.1035      5130.2548      12533.358      156818.5       42.801182      42.801182      85.602364          16040 
    270000   3581.0889      297344.74      1668.3229      296981         297259.82      297793.39     -3035.409       2098.4171      395.29683      7424.326       5200.1244      12624.45       157040.85      42.821402      42.821402      85.642803          16040 
    271000   3586.6433      295481.77      1674.7383      296268.37      295815.26      294361.66     -296.78277     -1288.7228     -397.88243      7435.8414      5088.0352      12523.877      157033.1       42.820698      42.820698      85.641396          16040 
    272000   3620.8485      294535.46      1681.1541      294400.45      294469.27      294736.67      161.40394      510.73924     -1913.2738      7506.7556      5271.2448      12778          157264.25      42.841698      42.841698      85.683396          16040 
    273000   3567.3878      298375.07      1687.5694      297982.92      300007.27      297135.03     -546.05975     -135.01937     -622.7584       7395.9207      5192.0606      12587.981      156988.09      42.816606      42.816606      85.633211          16040 
    274000   3587.5716      295955.97      1693.9842      297246.37      295359.54      295261.99     -3198.7         142.80279      1828.3392      7437.7658      5100.2354      12538.001      157028.51      42.82028       42.82028       85.640561          16040 
    275000   3612.7141      295012.61      1700.3999      295999.09      293873.77      295164.97      692.82067      681.858        1576.4739      7489.8914      5150.2389      12640.13       157175.27      42.833616      42.833616      85.667233          16040 
    276000   3613.1873      300678.4       1706.8153      302755.35      299061.75      300218.11     -955.55117     -3026.9719      3494.2785      7490.8725      5120.6528      12611.525      156786.5       42.798271      42.798271      85.596542          16040 
    277000   3600.3863      299379.22      1713.231       299592.47      301161.36      297383.82     -360.99453     -3317.154      -2297.1678      7464.3333      5225.5194      12689.853      156934.38      42.811723      42.811723      85.623445          16040 
    278000   3556.9349      300780.55      1719.6461      300129.93      300561.72      301650.01      161.55008     -1933.6683     -452.59857      7374.2498      5176.791       12551.041      156804.78      42.799934      42.799934      85.599869          16040 
    279000   3620.4754      302426.05      1726.0616      302986.23      303317.72      300974.19      3038.6013      447.01175     -307.50401      7505.9822      5194.6226      12700.605      156693.31      42.78979       42.78979       85.579579          16040 
    280000   3571.7743      307102.91      1732.4775      307900.76      305614.08      307793.89      61.968238      76.71836      -1505.1158      7405.0149      5212.059       12617.074      156359.06      42.759342      42.759342      85.518685          16040 
    281000   3579.8055      303123.99      1738.8935      304470.08      302521.49      302380.39     -299.32976     -1609.5659     -237.78049      7421.6652      5237.0253      12658.69       156673.69      42.788003      42.788003      85.576007          16040 
    282000   3581.6674      301369.39      1745.31        301739.38      301820.47      300548.33     -1610.944      -1547.1014      1172.5743      7425.5252      5316.3694      12741.895      156827.77      42.802025      42.802025      85.604051          16040 
    283000   3583.6848      302610.99      1751.7268      303136.12      304262.89      300433.96      1603.7071     -1218.916      -1475.3346      7429.7077      5297.8598      12727.567      156728.5       42.792992      42.792992      85.585985          16040 
    284000   3603.7355      302334.69      1758.143       300948.31      303565.65      302490.1      -870.52354      2573.9343      24.272654      7471.2768      5173.0519      12644.329      156661.77      42.786918      42.786918      85.573837          16040 
    285000   3587.6929      300219.76      1764.5582      299490.31      301168.74      300000.24      634.72976      3001.0482     -419.15967      7438.0174      5226.9242      12664.942      156860.98      42.805047      42.805047      85.610094          16040 
    286000   3571.0478      296532.63      1770.974       297523.05      296959.12      295115.72     -1868.9844      656.8173      -1562.3856      7403.5087      5177.422       12580.931      157007.85      42.818402      42.818402      85.636805          16040 
[...]
   3930000   3531.8802      299923.9       6740.4424      297462.33      299639.89      302669.47     -828.64398      1333.6859      2825.59        7322.3062      11850.509      19172.815      159718.1       42.942541      42.942541      86.612117          16040 
   3931000   3518.9037      302413.69      6747.6821      299616.52      301555.08      306069.45      1110.4519      3641.0526      3176.1999      7295.4034      11864.753      19160.157      159784.72      42.948511      42.948511      86.624157          16040 
   3932000   3535.5778      309440.51      6754.9194      307420.16      303225.55      317675.83     -447.61996     -369.2682      -1565.2433      7329.9722      11903.477      19233.449      159391.67      42.913266      42.913266      86.553072          16040 
   3933000   3539.5409      305074.34      6762.1528      303983.1       303787.41      307452.5      -2925.1383      939.57748      928.63539      7338.1884      11851.709      19189.897      159620.24      42.933769      42.933769      86.594425          16040 
   3934000   3524.9474      300707.5       6769.3915      297441.8       297936.17      306744.54      816.8771      -1538.7292      1241.2175      7307.9332      11831.707      19139.64       159885.44      42.957533      42.957533      86.642356          16040 
   3935000   3518.2628      292900.05      6776.6345      293866.05      291603.79      293230.3       1578.2144      4904.4156     -803.68407      7294.0747      11766.088      19060.163      160307.99      42.995343      42.995343      86.718616          16040 
   3936000   3521.6322      299452.95      6783.8758      297131.14      296805.92      304421.77      2534.3201     -710.05207     -2251.4271      7301.0601      11829.886      19130.946      159921.12      42.960728      42.960728      86.6488            16040 
   3937000   3503.8749      300362.71      6791.1196      299699.55      295991.05      305397.53     -548.3769       2899.3206     -2758.8901      7264.2457      11860.978      19125.224      159943.38      42.962722      42.962722      86.65282           16040 
   3938000   3514.5835      301662.96      6798.3663      298283.78      299903.88      306801.22     -843.59918      2996.176       4813.0427      7286.4468      11864.064      19150.511      159807.32      42.950535      42.950535      86.628242          16040 
   3939000   3514.4747      297501.65      6805.6118      291910.69      297561.16      303033.1       2626.772      -35.431323     -1062.6064      7286.2211      11788.075      19074.296      160214.03      42.986941      42.986941      86.701669          16040 
   3940000   3524.3037      294970.43      6812.8567      293255.79      292265.92      299389.58     -1429.0657     -513.98458      1530.5334      7306.5987      11750.22       19056.819      160298.67      42.99451       42.99451       86.716935          16040 
   3941000   3542.6604      301869.95      6820.1011      301259.63      298058.17      306292.04     -1405.0725     -5560.4481      3198.6367      7344.6558      11767.97       19112.626      159996.25      42.967455      42.967455      86.662367          16040 
   3942000   3503.7502      301871.24      6827.347       298731.24      300605.5       306276.97     -2243.1782     -787.31132      232.57119      7263.987       11825.898      19089.885      160110.29      42.977661      42.977661      86.682952          16040 
   3943000   3566.4149      297666.69      6834.5929      291131.26      298838.83      303029.98     -659.1078      -2259.06        8.8623023      7393.9037      11701.361      19095.265      160078.34      42.974802      42.974802      86.677186          16040 
   3944000   3518.8208      299532.44      6841.8305      295742.07      296970.28      305884.98     -569.90898      3484.2024      2433.3911      7295.2315      11790.735      19085.967      160128.19      42.979263      42.979263      86.686182          16040 
   3945000   3548.7635      296343.86      6849.0647      294927.73      291919.67      302184.18      1357.5147     -2310.0346      333.7222       7357.3087      11699.969      19057.278      160279.02      42.992753      42.992753      86.713391          16040 
   3946000   3545.0363      297120.78      6856.2997      292609.23      294233.85      304519.25      267.79705     -1219.9684     -769.07779      7349.5814      11725.691      19075.273      160183.15      42.984179      42.984179      86.696098          16040 
   3947000   3535.5669      302445.53      6863.5386      298659.31      300998.74      307678.55     -193.20025      412.07744      1085.3894      7329.9495      11820.574      19150.523      159780.9       42.948169      42.948169      86.623468          16040 
   3948000   3560.05        302025.75      6870.7784      296680.6       301446.22      307950.43     -768.25611      2243.5192      2639.9387      7380.7081      11768.015      19148.723      159789.37      42.948928      42.948928      86.624998          16040 
   3949000   3529.084       301984.78      6878.0175      300837.27      299971.74      305145.33     -4236.9889     -2704.0246     -3855.5478      7316.5091      11778.538      19095.047      160072.14      42.974248      42.974248      86.676067          16040 
   3950000   3526.0563      301131.98      6885.2546      298895.92      297187.36      307312.67     -1417.6098      1935.8863      2730.8995      7310.2322      11800.267      19110.499      159990.31      42.966923      42.966923      86.661295          16040 
   3951000   3505.2956      298828.5       6892.4938      295410.48      297200.08      303874.94      2255.7586     -3065.8751      2552.4343      7267.1909      11808.329      19075.52       160173.9       42.983352      42.983352      86.69443           16040 
   3952000   3565.9796      301400.09      6899.7354      299028.44      299670.25      305501.59      1869.2619      2406.1218     -2317.9455      7393.0013      11742.419      19135.42       159843.16      42.953746      42.953746      86.634718          16040 
   3953000   3575.0172      301095.88      6906.9767      298151.42      300004.54      305131.69      738.9371      -439.8933       1890.7278      7411.7379      11703.502      19115.24       159948.6       42.963189      42.963189      86.653763          16040 
   3954000   3535.0639      299880.37      6914.2155      296845.61      294880.25      307915.25      3273.6833      624.89747      2422.2386      7328.9068      11767.276      19096.183      160047.96      42.972084      42.972084      86.671702          16040 
   3955000   3515.8091      298695.24      6921.4582      297444.66      296920.12      301720.93     -407.60711     -3220.8363     -1542.8353      7288.9877      11814.953      19103.941      160005.32      42.968266      42.968266      86.664004          16040 
   3956000   3530.953       301253.34      6928.702       298648.86      299846.84      305264.31     -1755.8266      1464.8879      1840.4328      7320.3839      11799.688      19120.072      159916.91      42.960352      42.960352      86.64804           16040 
   3957000   3511.935       304630.8       6935.941       302159         300433.89      311299.5       1622.5074      2463.2046     -1164.2789      7280.9558      11862.24       19143.196      159791.65      42.949132      42.949132      86.62541           16040 
   3958000   3548.9571      303757.27      6943.1868      301161         298113.55      311997.27     -3600.7998     -2337.9387      619.6348       7357.7102      11764.028      19121.738      159901.81      42.958999      42.958999      86.645312          16040 
   3959000   3557.2734      303243.23      6950.427       300878.19      299835.54      309015.97      794.04658      2520.0253      2575.1839      7374.9515      11758.594      19133.545      159837.47      42.953237      42.953237      86.63369           16040 
   3960000   3531.0059      303364.83      6957.6625      299328.92      301733.9       309031.68     -1146.3499     -922.46242     -1320.8047      7320.4937      11822.238      19142.731      159782.5       42.948312      42.948312      86.623757          16040 
   3961000   3502.5744      297211.81      6964.906       298551.97      291400.98      301682.48      1838.9088      2344.5314      2452.3056      7261.5493      11812.888      19074.438      160143.58      42.98064       42.98064       86.68896           16040 
   3962000   3500.7319      296677.94      6972.1515      291857.29      294986.84      303189.68     -1092.2613     -3068.5071     -2750.3947      7257.7295      11841.767      19099.496      160007.62      42.968473      42.968473      86.66442           16040 
   3963000   3552.973       302673.01      6979.3935      298448.19      300844.93      308725.92     -1245.6293      734.6991       1475.0721      7366.0359      11760.611      19126.647      159861.02      42.955346      42.955346      86.637944          16040 
   3964000   3509.8324      298265.06      6986.6366      294513.3       296513.25      303768.62      1092.7947     -937.97031     -1674.0851      7276.5967      11801.252      19077.849      160119.51      42.978486      42.978486      86.684617          16040 
   3965000   3525.4322      296719.76      6993.8759      292159.57      293729.11      304270.58      1648.959      -2195.5575     -92.771698      7308.9383      11788.508      19097.447      160015.45      42.969174      42.969174      86.665834          16040 
   3966000   3528.3553      292851.76      7001.1147      286504.87      291280.89      300769.52     -173.09982     -4699.6586      409.56888      7314.9985      11717.876      19032.875      160355.91      42.999627      42.999627      86.727255          16040 
   3967000   3512.5044      296621.81      7008.3596      297432.26      294674.44      297758.73     -100.70223     -255.19225     -1149.0555      7282.1363      11813.165      19095.302      160019.48      42.969534      42.969534      86.66656           16040 
   3968000   3539.544       299139.41      7015.5942      296305.28      297459.16      303653.79      2350.788      -3092.3849     -2491.1511      7338.1949      11773.233      19111.428      159931.68      42.961674      42.961674      86.650708          16040 
   3969000   3531.3002      302479.5       7022.835       298281.92      301782.36      307374.21      4015.3557      1403.0386      3490.8653      7321.1039      11841.904      19163.008      159653.58      42.936758      42.936758      86.600453          16040 
   3970000   3524.4642      298009.25      7030.0779      297199.27      292009.9       304818.57      1748.5508      1060.9376     -375.85395      7306.9315      11797.659      19104.591      159960.65      42.964268      42.964268      86.655938          16040 
   3971000   3507.8101      297883.2       7037.3145      292237.34      293847.31      307564.95      1886.5295     -2307.6059      375.07774      7272.4041      11772.316      19044.72       160279.95      42.992836      42.992836      86.713558          16040 
   3972000   3520.0126      297836.96      7044.5562      296259.66      296579.79      300671.42     -2700.0856      502.41289     -1644.7864      7297.7023      11777.819      19075.522      160112.09      42.977822      42.977822      86.683277          16040 
   3973000   3534.2078      300212.04      7051.7974      297180.1       298693.12      304762.9      -1656.9579     -3523.8939      3163.1582      7327.1319      11754.029      19081.161      160080.07      42.974957      42.974957      86.677498          16040 
   3974000   3546.8401      305246.8       7059.0504      301477.22      302887.03      311376.14      447.46906     -2374.1803      1292.7286      7353.3212      11775.678      19128.999      159821.31      42.951789      42.951789      86.63077           16040 
   3975000   3522.5431      297860.77      7066.2957      295199.26      297505.97      300877.07     -1668.5516     -2870.9571     -718.33415      7302.9487      11783.546      19086.494      160047.84      42.972073      42.972073      86.671681          16040 
   3976000   3524.2606      300980.85      7073.5496      298356.69      296422.72      308163.12     -1522.5018     -1804.7131      3757.9114      7306.5094      11800.304      19106.814      159938.07      42.962246      42.962246      86.651861          16040 
   3977000   3572.9598      298902.57      7080.7902      295512.33      296658.11      304537.26      1871.7751      1569.2228     -4680.143       7407.4726      11688.061      19095.534      159993.61      42.967219      42.967219      86.66189           16040 
   3978000   3556.022       302655.37      7088.0277      300966.23      300651.45      306348.43     -570.34953      593.42104      1344.5048      7372.3571      11752.899      19125.256      159836.57      42.953156      42.953156      86.633526          16040 
   3979000   3566.8646      301153.86      7095.2621      297380.91      300253.91      305826.77      277.12641     -5628.3809      1604.6396      7394.836       11727.611      19122.447      159852.88      42.954617      42.954617      86.636473          16040 
   3980000   3565.4899      301459.36      7102.502       297625.23      300324.76      306428.1      -1228.0715     -2691.1487      1069.409       7391.9861      11718.505      19110.491      159914.45      42.960131      42.960131      86.647595          16040 
   3981000   3538.7853      298343.13      7109.7438      297012.94      294013.9       304002.54      2789.4695     -841.69222      1010.1445      7336.6219      11719.626      19056.248      160197.52      42.985465      42.985465      86.698691          16040 
   3982000   3554.559       296775.83      7116.9856      292603.48      292783.13      304940.88     -1194.3269     -2691.4786     -1943.9465      7369.3239      11667.476      19036.8        160304.52      42.995033      42.995033      86.71799           16040 
   3983000   3590.2181      299221.16      7124.2348      295663.82      297553.31      304446.36     -155.56521     -1030.9832     -593.61165      7443.2527      11645.795      19089.048      160011.75      42.968842      42.968842      86.665165          16040 
   3984000   3565.6861      295971.51      7131.479       293815.36      293412.44      300686.72     -1453.3561      5383.9187     -1581.3907      7392.3927      11637.284      19029.677      160326.79      42.997024      42.997024      86.722005          16040 
   3985000   3572.1849      301633.06      7138.7228      295893.55      299691.97      309313.66      1377.9466      640.76362      406.04213      7405.8661      11700.607      19106.473      159914.97      42.960177      42.960177      86.647689          16040 
   3986000   3536.9748      304726.47      7145.9579      301230.12      302159.94      310789.34     -596.1098       2057.6686      1395.5825      7332.8684      11740.636      19073.505      160088.63      42.975723      42.975723      86.679042          16040 
   3987000   3589.5626      299090.8       7153.198       296818.92      295241.9       305211.58      1231.3878      800.91869      1156.0485      7441.8937      11657.937      19099.831      159943.03      42.96269       42.96269       86.652757          16040 
   3988000   3567.5805      301809.08      7160.4392      298260.02      298477.87      308689.37      155.67578      944.92857      5537.4604      7396.3203      11697.452      19093.772      159973.59      42.965426      42.965426      86.658275          16040 
   3989000   3541.279       306175.91      7167.6844      302251.12      305262.43      311014.17      1067.7714     -610.78996      1617.5887      7341.792       11790.962      19132.754      159762.27      42.946499      42.946499      86.620101          16040 
   3990000   3572.4359      305851.58      7174.9208      304882.54      303135.36      309536.85      1190.6577     -673.42342      3266.5717      7406.3865      11731.471      19137.857      159732.48      42.943829      42.943829      86.614716          16040 
   3991000   3520.7633      298162.68      7182.1591      297587.23      292418.37      304482.44     -652.04438     -1091.1075      774.07438      7299.2587      11751.436      19050.694      160196.96      42.985415      42.985415      86.698591          16040 
   3992000   3548.676       302582.44      7189.3956      299557.22      299777.35      308412.74      747.62628      2374.9467      331.96566      7357.1274      11712.604      19069.731      160093.67      42.976174      42.976174      86.679952          16040 
   3993000   3560.7141      301262         7196.6388      299350.96      302130.61      302304.42      1603.6605      1710.3164     -738.98193      7382.0849      11676.973      19059.058      160146.63      42.980912      42.980912      86.689509          16040 
   3994000   3544.3034      298058.88      7203.874       298468.27      294403         301305.37     -809.61131     -2438.0844     -1960.6431      7348.0621      11695.413      19043.475      160225.04      42.987926      42.987926      86.703656          16040 
   3995000   3563.977       298754.98      7211.1231      294318.34      296467.81      305478.79      1739.4639      4646.4832      94.953906      7388.8495      11646.576      19035.426      160266.3       42.991616      42.991616      86.711097          16040 
   3996000   3524.117       298629.78      7218.3585      296532.44      297220.52      302136.38     -1607.405      -2077.0635     -269.33698      7306.2116      11766.891      19073.103      160065.64      42.973666      42.973666      86.674894          16040 
   3997000   3516.9953      304262.08      7225.5965      301914.99      301216.04      309655.22      1022.2867      2888.1672      2945.6608      7291.4469      11834.391      19125.838      159782.6       42.948321      42.948321      86.623776          16040 
   3998000   3519.1678      297232.94      7232.8451      293790.26      295642.67      302265.87      2264.9316      418.61463      2466.4069      7295.9508      11698.427      18994.378      160477.27      43.010471      43.010471      86.749128          16040 
   3999000   3537.3436      298387.95      7240.078       293936.27      293211.45      308016.14      1585.2258     -3968.6347      724.45262      7333.633       11715.754      19049.387      160180.36      42.983929      42.983929      86.695595          16040 
   4000000   3537.5184      303650.57      7247.4774      300328.08      302129.5       308494.14      83.849573      530.06147      184.64905      7333.9953      11765.178      19099.174      159911.67      42.959882      42.959882      86.647092          16040 
Loop time of 7247.48 on 8 procs for 1000000 steps with 16040 atoms

Performance: 5.961 ns/day, 4.026 hours/ns, 137.979 timesteps/s
59.3% CPU use with 1 MPI tasks x 8 OpenMP threads

MPI task timing breakdown:
Section |  min time  |  avg time  |  max time  |%varavg| %total
---------------------------------------------------------------
Pair    | 6978.8     | 6978.8     | 6978.8     |   0.0 | 96.29
Neigh   | 10.16      | 10.16      | 10.16      |   0.0 |  0.14
Comm    | 34.419     | 34.419     | 34.419     |   0.0 |  0.47
Output  | 1.233      | 1.233      | 1.233      |   0.0 |  0.02
Modify  | 198.88     | 198.88     | 198.88     |   0.0 |  2.74
Other   |            | 24.01      |            |       |  0.33

Nlocal:          16040 ave       16040 max       16040 min
Histogram: 1 0 0 0 0 0 0 0 0 0
Nghost:          14569 ave       14569 max       14569 min
Histogram: 1 0 0 0 0 0 0 0 0 0
Neighs:              0 ave           0 max           0 min
Histogram: 1 0 0 0 0 0 0 0 0 0
FullNghs:  1.47236e+06 ave 1.47236e+06 max 1.47236e+06 min
Histogram: 1 0 0 0 0 0 0 0 0 0

Total # of neighbors = 1472364
Ave neighs/atom = 91.793267
Neighbor list builds = 32118
Dangerous builds = 0
Total wall time: 7:41:55
