
atom_style atomic
units metal
boundary p p p
#atom_modify sort 0 0.0
newton on

read_data data.lammps
Reading data file ...
  orthogonal box = (0 0 0) to (43.790145 43.790145 87.58029)
  1 by 1 by 1 MPI processor grid
  reading atoms ...
  16040 atoms
  read_data CPU = 0.041 seconds
# replicate 10 10 20

### interactions

pair_style flare
pair_coeff * * lmp.flare
Reading potential file lmp.flare with DATE: Thu

# compute unc all flare/std/atom L_inv_lmp.flare sparse_desc_lmp.flare
# compute MaxUnc all reduce max c_unc

mass 1 12.011000
mass 2 28.085000

thermo_style custom step temp press cpu pxx pyy pzz pxy pxz pyz ke pe etotal vol lx ly lz atoms    #c_MaxUnc
thermo 1000
timestep 0.0005
restart 100000 restart_*.dat

#################### Equilibrate at P and T_es ##############################
velocity all create $T 41928459 rot yes dist gaussian
velocity all create 3800 41928459 rot yes dist gaussian
fix mom all momentum 1000 linear 1 1 1 angular

fix 1 all npt temp $T $T $(100.0*dt) iso $P $P $(1000.0*dt)
fix 1 all npt temp 3800 $T $(100.0*dt) iso $P $P $(1000.0*dt)
fix 1 all npt temp 3800 3800 $(100.0*dt) iso $P $P $(1000.0*dt)
fix 1 all npt temp 3800 3800 0.050000000000000002776 iso $P $P $(1000.0*dt)
fix 1 all npt temp 3800 3800 0.050000000000000002776 iso 300000 $P $(1000.0*dt)
fix 1 all npt temp 3800 3800 0.050000000000000002776 iso 300000 300000 $(1000.0*dt)
fix 1 all npt temp 3800 3800 0.050000000000000002776 iso 300000 300000 0.5
dump 1 all custom 1000 1equil.bin id type x y z vx vy vz
run   10000 # report performance
Neighbor list info ...
  update every 1 steps, delay 10 steps, check yes
  max neighbors/atom: 2000, page size: 100000
  master list distance cutoff = 6
  ghost atom cutoff = 6
  binsize = 6, bins = 8 8 15
  1 neighbor lists, perpetual/occasional/extra = 1 0 0
  (1) pair flare/kk, perpetual
      attributes: full, newton on, kokkos_device
      pair build: full/bin/kk/device
      stencil: full/bin/3d
      bin: kk/device
Per MPI rank memory allocation (min/avg/max) = 16.04 | 16.04 | 16.04 Mbytes
   Step          Temp          Press           CPU            Pxx            Pyy            Pzz            Pxy            Pxz            Pyz           KinEng         PotEng         TotEng         Volume           Lx             Ly             Lz          Atoms   
         0   3800           84539.211      0              85134.427      84099.503      84383.704      1075.1264     -195.07342     -877.12361      7878.1732     -2985.8921      4892.2811      167941.93      43.790145      43.790145      87.58029           16040 
      1000   3873.6848      302466.6       6.4655356      304113.79      301982.58      301303.45      1808.9178     -68.76372      -1430.4267      8030.9368      6056.5075      14087.444      157619.07      42.873893      42.873893      85.747786          16040 
      2000   3823.5325      299005.08      12.884995      298762.26      298978.88      299274.1      -773.30357      583.06369     -575.15606      7926.9608      6007.793       13934.754      157629.95      42.874879      42.874879      85.749759          16040 
      3000   3796.7364      301186.28      19.301724      300974.25      301974.29      300610.3      -904.63799     -2530.7299     -2331.7713      7871.407       5885.5933      13757          157375.21      42.851771      42.851771      85.703542          16040 
      4000   3803.0612      298286.31      25.71947       299053.28      298069.73      297735.92      2073.6612     -1028.3425     -2715.555       7884.5197      6031.6442      13916.164      157591.03      42.87135       42.87135       85.742701          16040 
      5000   3796.2927      299441.15      32.137033      299746.19      298449.31      300127.97     -1657.4738      1564.5323     -974.79445      7870.4873      5920.7383      13791.226      157436.2       42.857306      42.857306      85.714612          16040 
      6000   3828.9298      300316.68      38.554526      301454.69      300531.59      298963.77      3208.1578      235.23813     -660.62148      7938.1506      5903.4198      13841.57       157481.15      42.861385      42.861385      85.72277           16040 
      7000   3790.9342      296292.83      44.969239      296485.27      296718.95      295674.26     -170.48695     -1747.5811     -665.47759      7859.378       5970.8448      13830.223      157687.57      42.880103      42.880103      85.760206          16040 
      8000   3784.1435      297230.49      51.386109      296668.77      298029.11      296993.59      436.07011     -1569.3524     -376.41536      7845.2994      5890.1811      13735.48       157595.61      42.871766      42.871766      85.743532          16040 
      9000   3847.9535      296704.95      57.80233       296606.79      297658.18      295849.89     -1199.2931      1207.6342     -570.00022      7977.5905      5864.2604      13841.851      157688.85      42.880219      42.880219      85.760438          16040 
     10000   3770.6891      296417.13      64.219269      297420.91      295921.54      295908.94      1053.7444     -556.17668      1835.5562      7817.4057      5930.7867      13748.192      157709.24      42.882068      42.882068      85.764135          16040 
Loop time of 64.2193 on 8 procs for 10000 steps with 16040 atoms

Performance: 6.727 ns/day, 3.568 hours/ns, 155.716 timesteps/s
61.2% CPU use with 1 MPI tasks x 8 OpenMP threads

MPI task timing breakdown:
Section |  min time  |  avg time  |  max time  |%varavg| %total
---------------------------------------------------------------
Pair    | 61.198     | 61.198     | 61.198     |   0.0 | 95.30
Neigh   | 0.096933   | 0.096933   | 0.096933   |   0.0 |  0.15
Comm    | 0.37121    | 0.37121    | 0.37121    |   0.0 |  0.58
Output  | 0.013312   | 0.013312   | 0.013312   |   0.0 |  0.02
Modify  | 2.2902     | 2.2902     | 2.2902     |   0.0 |  3.57
Other   |            | 0.2495     |            |       |  0.39

Nlocal:          16040 ave       16040 max       16040 min
Histogram: 1 0 0 0 0 0 0 0 0 0
Nghost:          13687 ave       13687 max       13687 min
Histogram: 1 0 0 0 0 0 0 0 0 0
Neighs:              0 ave           0 max           0 min
Histogram: 1 0 0 0 0 0 0 0 0 0
FullNghs:  1.47263e+06 ave 1.47263e+06 max 1.47263e+06 min
Histogram: 1 0 0 0 0 0 0 0 0 0

Total # of neighbors = 1472626
Ave neighs/atom = 91.809601
Neighbor list builds = 312
Dangerous builds = 0
run  990000
Per MPI rank memory allocation (min/avg/max) = 16.11 | 16.11 | 16.11 Mbytes
   Step          Temp          Press           CPU            Pxx            Pyy            Pzz            Pxy            Pxz            Pyz           KinEng         PotEng         TotEng         Volume           Lx             Ly             Lz          Atoms   
     10000   3770.6891      296417.13      0              297420.91      295921.54      295908.94      1053.7444     -556.17668      1835.5562      7817.4057      5930.7867      13748.192      157709.24      42.882068      42.882068      85.764135          16040 
     11000   3761.6645      297935.91      6.4146349      299021.59      296665.25      298120.88      572.79743      3422.3266      1696.8585      7798.6958      5973.0648      13771.761      157650.23      42.876718      42.876718      85.753436          16040 
     12000   3811.6029      297318.2       12.8312        296291.47      296684.46      298978.66     -230.06864      648.56797      613.64569      7902.2282      5968.9919      13871.22       157608.78      42.87296       42.87296       85.745921          16040 
     13000   3790.9596      299073.29      19.248034      298585.15      299180.98      299453.74      2235.9604     -2578.1806     -1472.9069      7859.4306      5874.4715      13733.902      157461.03      42.859559      42.859559      85.719118          16040 
     14000   3823.55        296323.57      25.664247      296593.49      297698.71      294678.52      707.67771      1110.8639      1066.3429      7926.997       5926.4892      13853.486      157618.39      42.873831      42.873831      85.747662          16040 
     15000   3759.5948      299744.03      32.080417      299701.38      299699.93      299830.77      806.72222     -112.03011      27.715601      7794.405       5877.005       13671.41       157286.95      42.843758      42.843758      85.687517          16040 
     16000   3799.5305      299329.45      38.500074      299226.74      299177.64      299583.97      3371.9934      2440.0576      367.56029      7877.1998      5984.1701      13861.37       157475.66      42.860886      42.860886      85.721773          16040 
     17000   3801.8603      302603.69      44.917007      303066.69      302499.03      302245.35      73.493647      803.7926       2954.104       7882.0299      5944.0931      13826.123      157309.95      42.845847      42.845847      85.691693          16040 
     18000   3803.7014      300804.74      51.336811      301140.21      301868.36      299405.67      1099.7691     -529.31266     -705.9824       7885.8469      5900.3139      13786.161      157349.87      42.849471      42.849471      85.698941          16040 
     19000   3810.5003      299337.77      57.754071      298816.33      300569.46      298627.53     -4623.7173      2362.3677     -537.77632      7899.9425      5936.0127      13835.955      157384.16      42.852583      42.852583      85.705166          16040 
     20000   3847.2083      302277.53      64.170019      302971.63      302921.01      300939.94      2463.7289      543.42961     -659.74609      7976.0455      5957.8161      13933.862      157340.65      42.848634      42.848634      85.697268          16040 
     21000   3792.897       301316.09      70.588708      301327.47      301168.88      301451.92      3273.3773      3847.9738     -557.36781      7863.4472      5942.2406      13805.688      157278.54      42.842995      42.842995      85.68599           16040 
     22000   3823.3231      301987.79      77.008508      302654.55      301710.85      301597.97     -196.00613     -1401.7878      122.20856      7926.5266      5850.4995      13777.026      157245.74      42.840017      42.840017      85.680033          16040 
     23000   3821.6078      301330.86      83.4266        299987.55      302731.08      301273.94     -1099.9557      511.79154     -728.18814      7922.9706      5865.6449      13788.615      157242.94      42.839763      42.839763      85.679525          16040 
     24000   3843.3286      300409.75      89.844586      301140.1       299874.1       300215.06     -1597.3821      837.63307      1469.3931      7968.0022      5915.7469      13883.749      157413.6       42.855255      42.855255      85.71051           16040 
     25000   3799.4523      300598.88      96.261875      299615.61      300519.39      301661.65     -69.037421     -45.958869      2241.9381      7877.0377      5866.3593      13743.397      157329.46      42.847618      42.847618      85.695237          16040 
     26000   3840.4814      301105.22      102.68062      300712.84      301618.01      300984.81     -657.07118      30.020715     -2343.2953      7962.0992      5950.5501      13912.649      157393.74      42.853452      42.853452      85.706905          16040 
     27000   3760.1812      303380.46      109.10073      303637.26      303560.41      302943.72     -2406.6005      918.83891      2671.6017      7795.6207      5940.0102      13735.631      157175.98      42.833681      42.833681      85.667362          16040 
     28000   3829.4741      299895.8       115.51999      300096.23      298982.52      300608.64      483.68029      1664.6638      317.2355       7939.279       5901.8844      13841.163      157447.54      42.858335      42.858335      85.716671          16040 
     29000   3800.9124      296459.63      121.93725      297664.07      296035.87      295678.94     -1206.5237      508.13023      137.67284      7880.0647      5848.4756      13728.54       157474.21      42.860755      42.860755      85.721509          16040 
     30000   3805.3644      294102.8       128.35649      294961.18      294152.49      293194.73      863.06551      400.14895     -959.4543       7889.2947      5900.1508      13789.445      157735.31      42.88443       42.88443       85.768859          16040 
     31000   3758.7323      295975.76      134.77536      295641.06      295610.1       296676.12     -4095.3953      1989.6017     -1078.4462      7792.6168      5822.5831      13615.2        157557.04      42.868268      42.868268      85.736536          16040 
     32000   3781.5635      293422.54      141.19462      292950.49      293024.31      294292.82     -1023.1585      3302.4616     -1136.9263      7839.9505      5833.2222      13673.173      157735.86      42.88448       42.88448       85.768959          16040 
     33000   3794.2737      296687.51      147.61304      297370.7       295814.9       296876.94     -4141.1008     -1178.3588      2098.5427      7866.3014      5789.1232      13655.425      157616.44      42.873655      42.873655      85.74731           16040 
     34000   3816.4383      295515.57      154.03101      295609.88      294831.85      296104.97     -607.18949      704.69304      815.64619      7912.2531      5862.1419      13774.395      157699.73      42.881205      42.881205      85.76241           16040 
     35000   3802.9244      297542.05      160.45001      298610.99      296594         297421.17     -2483.2151     -782.12849     -585.87936      7884.236       5797.6246      13681.861      157528.62      42.86569       42.86569       85.731381          16040 
     36000   3735.17        298872.39      166.86968      299442.07      299329.08      297846.02      2077.9261      376.78729     -1500.0005      7743.7673      5918.6892      13662.457      157479.9       42.861271      42.861271      85.722541          16040 
     37000   3793.494       294759.43      173.28702      296097.03      294459.31      293721.95      559.23036      1405.6016     -3439.0009      7864.685       5831.838       13696.523      157590.16      42.871272      42.871272      85.742543          16040 
     38000   3818.1274      296975.48      179.70545      299354.2       296534.37      295037.86      2111.0789      2127.5776     -469.90364      7915.7549      5798.6841      13714.439      157540.07      42.866729      42.866729      85.733458          16040 
     39000   3749.9864      298677.66      186.12528      297223.5       300675.69      298133.8      -1103.6542      1074.4816     -726.34744      7774.4849      5804.2282      13578.713      157417.82      42.855638      42.855638      85.711276          16040 
     40000   3799.3336      293504.51      192.54394      292714.55      294961.86      292837.11     -2955.6337     -1690.9093      1462.2105      7876.7915      5797.7145      13674.506      157806.23      42.890856      42.890856      85.781712          16040 
     41000   3753.3419      293410.13      198.96459      292202.39      294248.29      293779.71     -1153.8256      763.50566      413.63787      7781.4414      5745.7714      13527.213      157553.17      42.867917      42.867917      85.735835          16040 
     42000   3796.5714      294069.51      205.38362      292904.87      294782.78      294520.89      152.63114      878.81819     -822.70874      7871.0651      5798.4025      13669.468      157694.25      42.880708      42.880708      85.761417          16040 
     43000   3805.0951      297711.36      211.80268      297946.95      297478.31      297708.83     -1543.0602      1357.3656      136.58517      7888.7364      5686.4359      13575.172      157515.17      42.864471      42.864471      85.728942          16040 
     44000   3810.2037      298201.99      218.22015      300078.6       297968.65      296558.74     -1609.0556      2076.7929     -1838.532       7899.3276      5909.8869      13809.215      157540.34      42.866754      42.866754      85.733508          16040 
     45000   3774.8637      299156.85      224.63715      300273.6       297785.62      299411.33     -1491.1212     -1768.6759     -176.09692      7826.0606      5780.0712      13606.132      157398.79      42.853911      42.853911      85.707822          16040 
     46000   3793.5331      298403.24      231.0543       298257.08      297683.2       299269.44     -2354.1773     -237.56138     -2892.024       7864.7659      5784.0158      13648.782      157511.09      42.8641        42.8641        85.728201          16040 
     47000   3774.1691      294391.69      237.4693       297024.45      293889.07      292261.56      2610.4558      2204.8889      2475.9238      7824.6205      5681.225       13505.845      157672.25      42.878714      42.878714      85.757429          16040 
     48000   3782.4984      292303.15      243.88059      292743         292065.6       292100.86     -1920.892      -562.81714     -385.72543      7841.8888      5789.1405      13631.029      157826.72      42.892713      42.892713      85.785425          16040 
     49000   3746.6833      296274.76      250.29653      294951.78      297910.47      295962.04      1775.888      -153.20013     -541.00754      7767.6368      5908.2531      13675.89       157654.19      42.877077      42.877077      85.754155          16040 
     50000   3791.4773      302201.96      256.71363      303707.42      303478.46      299420         106.58242     -2526.312       1976.425       7860.5039      5751.5016      13612.006      157278.2       42.842964      42.842964      85.685929          16040 
     51000   3813.2665      299442.42      263.12947      298119.33      300382.08      299825.83      2279.3266     -231.16989      949.67265      7905.6774      5848.5428      13754.22       157470.61      42.860428      42.860428      85.720856          16040 
     52000   3795.3128      297752.54      269.54717      296254.31      298441.41      298561.91     -903.05316      1828.7482      1577.6937      7868.4557      5794.7233      13663.179      157474.83      42.860811      42.860811      85.721623          16040 
     53000   3786.6391      297378.92      275.96642      297653.4       295960.28      298523.09     -526.78051      710.4441       197.53206      7850.4732      5774.791       13625.264      157575.88      42.869977      42.869977      85.739954          16040 
     54000   3803.6022      297586.92      282.38218      297752.46      297658.34      297349.96      2734.4298      394.1199      -839.54447      7885.6413      5649.0897      13534.731      157459.61      42.85943       42.85943       85.718859          16040 
     55000   3837.0817      295005.25      288.79943      295023.18      293315.35      296677.22     -904.43595      389.59594      150.22811      7955.051       5653.8693      13608.92       157624.42      42.874378      42.874378      85.748757          16040 
     56000   3772.8319      295887.86      295.21657      295796.02      296691.53      295176.01     -1364.0051      3073.6943      680.41275      7821.8481      5751.7901      13573.638      157635.5       42.875383      42.875383      85.750766          16040 
     57000   3741.5515      293366.07      301.63441      292076.32      294623.64      293398.24     -1168.0815     -1439.2779     -374.45393      7756.9976      5692.6753      13449.673      157704.87      42.881671      42.881671      85.763343          16040 
     58000   3818.4008      296542.03      308.05382      296372.33      296396.06      296857.69      1953.2356      2285.3972     -336.86617      7916.3218      5721.977       13638.299      157619.52      42.873934      42.873934      85.747868          16040 
     59000   3804.2134      299569.42      314.47174      299474.08      300421.09      298813.11      629.17442     -2665.0707     -1987.1889      7886.9084      5701.9824      13588.891      157339.23      42.848505      42.848505      85.69701           16040 
     60000   3838.7974      299412.92      320.89109      297854.96      300588.9       299794.9      -373.95009      3389.6279     -2772.5888      7958.6081      5826.0451      13784.653      157426.11      42.85639       42.85639       85.712781          16040 
     61000   3814.1518      301135.66      327.31114      300772.4       299846.88      302787.7      -1373.089      -1497.309      -1494.0909      7907.5127      5678.059       13585.572      157223.09      42.83796       42.83796       85.67592           16040 
     62000   3809.773       300908.13      333.72894      300689.59      299647.63      302387.18      841.85855     -302.52361      677.14419      7898.4346      5864.4622      13762.897      157293.99      42.844398      42.844398      85.688796          16040 
     63000   3820.1348      304841.26      340.14715      302468.54      307009.48      305045.77      171.03651     -1510.3926     -49.51151       7919.9166      5830.6524      13750.569      157055.94      42.822773      42.822773      85.645546          16040 
     64000   3811.5484      306614.57      346.56382      305584.24      308362.06      305897.41      2735.9092      465.73543     -2481.3556      7902.1154      5790.8553      13692.971      156986.32      42.816445      42.816445      85.63289           16040 
     65000   3776.1627      303534.77      352.97691      305519.69      301893.33      303191.29      3156.5492      1499.0741      924.69663      7828.7537      5763.7682      13592.522      157180.17      42.834061      42.834061      85.668122          16040 
     66000   3805.5633      299046.85      359.39665      298399.72      298224.45      300516.39     -593.89694      2146.7667     -1328.6061      7889.7071      5783.7387      13673.446      157498.89      42.862994      42.862994      85.725988          16040 
     67000   3791.2114      295584.97      365.81338      296270.22      293999.06      296485.62      1705.0639      1512.0983      348.34167      7859.9527      5738.0085      13597.961      157672.92      42.878775      42.878775      85.75755           16040 
     68000   3758.2664      298784.26      372.23143      298976.7       298737.91      298638.19     -1381.6811     -2368.7362     -1197.1018      7791.6509      5760.2213      13551.872      157411.83      42.855094      42.855094      85.710188          16040 
     69000   3752.16        296768.83      378.64924      295618.28      298273.49      296414.73      766.94523     -217.07449     -546.9058       7778.9911      5687.1277      13466.119      157446.25      42.858218      42.858218      85.716436          16040 
     70000   3813.4568      295338.21      385.06658      295549.99      296371.01      294093.62      2814.5976      180.56552      1461.7214      7906.0719      5736.2473      13642.319      157554.52      42.86804       42.86804       85.736079          16040 
     71000   3766.9279      298549.21      391.48525      298499.81      299071.9       298075.93      807.90414     -1610.2543      545.77744      7809.608       5814.8137      13624.422      157457.5       42.859238      42.859238      85.718477          16040 
     72000   3756.5242      296132.57      397.90727      295138.57      296787.26      296471.87     -925.27207      1650.3421      626.50761      7788.039       5766.0678      13554.107      157507.22      42.863749      42.863749      85.727499          16040 
     73000   3780.6681      295515.34      404.32839      294549.42      296185.66      295810.94     -1866.1923     -3398.8835     -4094.7445      7838.0943      5748.8868      13586.981      157552.22      42.867831      42.867831      85.735661          16040 
     74000   3794.2444      297618.76      410.7489       297355.89      297931.29      297569.1      -1197.4687     -3163.835       1865.7975      7866.2406      5793.7316      13659.972      157548.02      42.86745       42.86745       85.734899          16040 
     75000   3779.6302      299723.36      417.17005      299504.17      299669.65      299996.25      3279.8301     -20.221064     -2410.2778      7835.9424      5665.6958      13501.638      157397.65      42.853808      42.853808      85.707616          16040 
     76000   3783.9096      298723.1       423.59197      299189.96      297547.82      299431.51      467.20109     -5354.7591      2451.9572      7844.8145      5745.7043      13590.519      157438.71      42.857534      42.857534      85.715067          16040 
     77000   3811.4121      304369.39      430.01169      303756.56      303361.42      305990.2       220.87137     -335.22143      493.53618      7901.8328      5772.9835      13674.816      157136.65      42.830108      42.830108      85.660215          16040 
     78000   3798.6029      303254.2       436.43264      302619.68      303688.45      303454.48      965.47005      835.24325     -691.27486      7875.2767      5898.3263      13773.603      157187.01      42.834683      42.834683      85.669366          16040 
     79000   3799.4105      303389.52      442.85311      303223.11      303609.04      303336.4      -870.59587      338.27339     -828.05012      7876.951       5774.1338      13651.085      157112.09      42.827876      42.827876      85.655751          16040 
     80000   3792.5348      306661.63      449.27426      305376.8       308669.29      305938.79     -1124.6096      1734.4125     -298.57254      7862.6962      5775.6615      13638.358      157067.2       42.823797      42.823797      85.647594          16040 
     81000   3794.9731      300912.21      455.69512      300890.85      298862.25      302983.52     -408.48903      356.43487     -1027.9301      7867.7515      5743.4726      13611.224      157284.73      42.843557      42.843557      85.687115          16040 
     82000   3811.8164      300015.15      462.116        300083.06      300062.33      299900.07     -1100.0136      1406.2379      1848.1444      7902.671       5721.9338      13624.605      157360.73      42.850457      42.850457      85.700914          16040 
     83000   3817.08        299091.53      468.5358       296438.03      300987.96      299848.61      469.25093     -1708.7945      53.615323      7913.5836      5614.8592      13528.443      157341.15      42.848679      42.848679      85.697358          16040 
     84000   3757.8844      297948.5       474.95572      296506.56      297229.14      300109.81     -1803.0365     -1010.535       2683.8842      7790.859       5710.6759      13501.535      157415.44      42.855422      42.855422      85.710844          16040 
     85000   3786.8201      295956.84      481.37847      294586.39      294111.07      299173.07     -326.6593       894.11349     -1121.6338      7850.8485      5667.2888      13518.137      157525.34      42.865393      42.865393      85.730786          16040 
     86000   3808.3679      298121.73      487.7994       297454.3       298617.28      298293.62      1501.806      -830.09053      1582.8887      7895.5214      5799.3191      13694.841      157488.11      42.862016      42.862016      85.724032          16040 
     87000   3737.0474      299466.75      494.2191       299507.54      299026.05      299866.66     -912.46135     -3557.6575      1247.303       7747.6596      5817.4261      13565.086      157348.05      42.849306      42.849306      85.698612          16040 
     88000   3762.146       300570.32      500.63989      299449.55      300645.14      301616.29      4.6569967     -1474.3059     -963.72886      7799.6942      5664.8647      13464.559      157218.16      42.837512      42.837512      85.675024          16040 
     89000   3810.4089      298580.87      507.06024      295377.44      299315.7       301049.46      34.021321     -785.01745      1808.9279      7899.753       5742.6673      13642.42       157454.64      42.858979      42.858979      85.717958          16040 
     90000   3823.5726      296192.36      513.48205      297543.77      295335.11      295698.2      -2884.1653      522.44665      2136.1799      7927.044       5634.2394      13561.283      157511.88      42.864172      42.864172      85.728344          16040 
     91000   3775.4595      296570.81      519.90409      295855.54      298933.56      294923.34     -147.77231     -1867.7038     -1385.5172      7827.2957      5747.8703      13575.166      157484.29      42.86167       42.86167       85.723339          16040 
     92000   3782.2385      297781.48      526.32501      297180.34      298870.8       297293.3       502.0131      -174.44975      51.031697      7841.35        5668.7238      13510.074      157442.7       42.857896      42.857896      85.715792          16040 
     93000   3779.836       297200.43      532.74442      298325.05      295637.9       297638.34      1157.443       105.29583     -160.94295      7836.3692      5602.262       13438.631      157397.79      42.853821      42.853821      85.707641          16040 
     94000   3812.4694      297053.86      539.16404      298537.83      297253.25      295370.51      647.09615     -2576.2005     -2939.5135      7904.0247      5699.7077      13603.732      157515.62      42.864511      42.864511      85.729022          16040 
     95000   3794.8093      299930.22      545.58263      301631.53      300764.23      297394.89      446.78556      502.69307      1557.3521      7867.4118      5655.2804      13522.692      157376.5       42.851888      42.851888      85.703776          16040 
     96000   3734.3134      296623         552.00361      297163.98      297149.29      295555.73     -1774.2045      1224.3931     -1162.8515      7741.9915      5763.4262      13505.418      157440.26      42.857674      42.857674      85.715349          16040 
     97000   3780.2761      298227.37      558.42452      298214.7       297915.47      298551.93      85.00277      -1463.8787     -67.575382      7837.2815      5670.8866      13508.168      157451.4       42.858685      42.858685      85.71737           16040 
     98000   3793.6104      297109.75      564.84503      297776.63      296140.03      297412.58      1486.5537      519.74774     -1219.1109      7864.9262      5642.8712      13507.797      157432.27      42.856949      42.856949      85.713899          16040 
     99000   3785.2803      294942.59      571.2661       296545.72      292897.72      295384.34      693.25828     -161.50854     -1692.6546      7847.6562      5681.9453      13529.601      157609.33      42.87301       42.87301       85.746021          16040 
    100000   3812.7424      294785.47      577.69241      295932.95      295241.08      293182.4      -1525.6026     -1296.6647     -1009.6409      7904.5908      5581.9916      13486.582      157562.34      42.868749      42.868749      85.737497          16040 
    101000   3812.0616      294562.33      584.11154      293571.26      295299.58      294816.15      843.13956     -255.09609     -3524.1831      7903.1793      5655.4397      13558.619      157589.04      42.87117       42.87117       85.74234           16040 
    102000   3786.8458      299142.36      590.53276      296292.62      301896.24      299238.22     -73.349232      371.76401     -248.4528       7850.9019      5656.6797      13507.582      157341.07      42.848672      42.848672      85.697345          16040 
    103000   3763.674       299425.71      596.95492      298928.41      299387.46      299961.25      1337.1717     -386.62052     -1221.9164      7802.862       5735.4595      13538.321      157329.73      42.847643      42.847643      85.695285          16040 
    104000   3793.2045      299961.43      603.3757       300935.12      300566.54      298382.62      113.30483      2279.7653      2552.5509      7864.0846      5748.6933      13612.778      157393.06      42.853391      42.853391      85.706782          16040 
    105000   3798.1392      299178.24      609.79612      299540.28      298875.55      299118.89     -657.06265     -397.48325     -435.94376      7874.3153      5714.4229      13588.738      157378.47      42.852067      42.852067      85.704133          16040 
    106000   3777.3486      297988.91      616.21631      297506.12      298882.48      297578.12      722.09197      2270.5899     -349.68345      7831.2122      5730.4857      13561.698      157493.96      42.862547      42.862547      85.725093          16040 
    107000   3818.8872      297796.54      622.63691      296993.79      299689.2       296706.64      857.26359      1674.1987     -679.44048      7917.3301      5586.3395      13503.67       157401.19      42.854129      42.854129      85.708259          16040 
    108000   3778.3844      295928.74      629.05825      295302.07      297359.85      295124.28     -641.59059     -1184.3677     -2193.5707      7833.3596      5712.6262      13545.986      157551.89      42.867801      42.867801      85.735601          16040 
    109000   3814.9604      296361.36      635.47941      297966.7       295375.97      295741.42      1457.1871      2144.6343      444.45244      7909.1892      5735.4712      13644.66       157464.33      42.859858      42.859858      85.719717          16040 
    110000   3812.8527      301101.24      641.90133      300125.99      301711.11      301466.6       2103.5785     -968.16776     -772.71356      7904.8193      5625.8334      13530.653      157204.14      42.836239      42.836239      85.672477          16040 
    111000   3796.295       300975.27      648.32376      298720.44      301873.22      302332.16     -508.8496      -659.69746      179.54501      7870.492       5770.5024      13640.994      157328.97      42.847573      42.847573      85.695147          16040 
    112000   3790.5774      303533.97      654.74258      304541.11      303607.14      302453.67      264.80461     -2104.1128      84.047552      7858.6382      5665.7553      13524.394      157125.69      42.829112      42.829112      85.658224          16040 
    113000   3846.1464      300922.42      661.16383      298012.57      302315.94      302438.74     -2163.175      -398.13805      2055.1384      7973.844       5675.6892      13649.533      157305.26      42.845422      42.845422      85.690843          16040 
    114000   3804.2031      301175.27      667.58554      301057.4       301883.11      300585.3       3889.2897     -809.36039      2929.2856      7886.8871      5680.1905      13567.078      157300.28      42.844969      42.844969      85.689939          16040 
    115000   3814.5316      300842.88      674.00583      300198.41      300352.63      301977.61      265.30829     -1113.2722     -240.83074      7908.3002      5678.7049      13587.005      157320.47      42.846802      42.846802      85.693605          16040 
    116000   3812.6266      297713.69      680.42837      298880.67      296719.33      297541.08      4186.0158     -1605.1485     -1588.4275      7904.3507      5710.4838      13614.835      157448.36      42.858409      42.858409      85.716818          16040 
    117000   3774.4861      300132.97      686.8486       300172.61      301141.69      299084.6       34.166066      1796.4913      2199.0205      7825.2776      5704.8515      13530.129      157357.51      42.850164      42.850164      85.700328          16040 
    118000   3799.7289      299619.72      693.26989      300930.25      298990.75      298938.14     -3943.2039      3108.5785      16.160495      7877.6112      5733.769       13611.38       157418.49      42.855699      42.855699      85.711397          16040 
    119000   3802.7493      297774.81      699.69139      295523.49      299525.31      298275.63     -2254.2513      798.84667      2247.9143      7883.873       5680.0371      13563.91       157439.45      42.857601      42.857601      85.715201          16040 
    120000   3804.8607      299625.31      706.11079      299878.99      299625.73      299371.2      -3196.3889     -1698.7118      96.952799      7888.2505      5679.0207      13567.271      157343.35      42.848879      42.848879      85.697758          16040 
    121000   3791.7115      295088.92      712.53298      294093.77      294653.76      296519.21      3838.3646      4715.7823     -745.1049       7860.9895      5684.1156      13545.105      157581.07      42.870447      42.870447      85.740895          16040 
    122000   3783.1446      295093.25      718.95642      295744.57      296104.69      293430.5      -2643.3991      2221.6613     -56.404394      7843.2286      5645.2121      13488.441      157568.36      42.869294      42.869294      85.738589          16040 
    123000   3819.7515      297144.55      725.37621      295786.79      297735.94      297910.9       587.59471     -715.18659     -1256.9946      7919.1221      5710.8495      13629.972      157501.71      42.863249      42.863249      85.726498          16040 
    124000   3765.9338      297721.05      731.79898      299754.52      297322.83      296085.79     -950.61814     -699.59455      2867.1956      7807.547       5660.6334      13468.18       157391.8       42.853277      42.853277      85.706554          16040 
    125000   3790.646       298842.14      738.22052      298888.02      299323.44      298314.97     -3153.879      -1011.28        1576.2436      7858.7804      5739.7832      13598.564      157472.59      42.860608      42.860608      85.721216          16040 
    126000   3787.9416      301358.96      744.63988      300549.54      300466.03      303061.31     -121.88175      634.51103     -1145.3234      7853.1736      5630.9138      13484.087      157215.7       42.837288      42.837288      85.674576          16040 
    127000   3803.5131      302656.54      751.06196      303098.94      303483.67      301387         151.98194     -1780.3107      1224.5422      7885.4565      5725.238       13610.695      157226.48      42.838268      42.838268      85.676535          16040 
    128000   3809.0424      303033.69      757.4836       302134.02      303716.58      303250.46      1504.8255     -2948.9505     -647.97495      7896.92        5721.8812      13618.801      157136.76      42.830118      42.830118      85.660236          16040 
    129000   3812.6807      300159.32      763.9049       300312.13      299180.23      300985.59     -2716.9062     -5144.9142      1822.8874      7904.4629      5698.9353      13603.398      157329.32      42.847605      42.847605      85.695211          16040 
    130000   3770.8768      299816.11      770.32857      298502.33      299929.65      301016.36      328.69189      2432.813       1302.8502      7817.7948      5737.7708      13555.566      157356.15      42.850041      42.850041      85.700082          16040 
    131000   3797.4713      301542.82      776.74895      301803.04      303844.04      298981.39     -530.34486      222.83862     -559.41952      7872.9306      5703.4148      13576.345      157200.09      42.83587       42.83587       85.671741          16040 
    132000   3752.6859      301950.11      783.17143      299816.11      303561.11      302473.11      1029.4594     -820.77781     -104.34235      7780.0814      5806.8135      13586.895      157210.61      42.836826      42.836826      85.673652          16040 
    133000   3776.3966      302773.98      789.59284      302648.84      303549.75      302123.34      111.30629     -1255.5427      539.06129      7829.2385      5651.6567      13480.895      157124.32      42.828987      42.828987      85.657974          16040 
    134000   3775.5799      299696.52      796.01378      299534.46      299419.26      300135.85     -923.59356      750.12122     -2908.1912      7827.5453      5758.9664      13586.512      157302.58      42.845178      42.845178      85.690356          16040 
    135000   3773.6882      300800.12      802.43616      298564.21      303957.51      299878.64      1002.8921      1554.5885     -2946.2857      7823.6235      5675.55        13499.174      157266.01      42.841857      42.841857      85.683714          16040 
    136000   3830.5113      297479.71      808.85785      298440.03      297812.6       296186.5       903.27987     -1846.953      -624.72265      7941.4293      5689.478       13630.907      157478.69      42.861161      42.861161      85.722322          16040 
    137000   3769.5336      302152.74      815.27768      302418.42      302142.59      301897.21     -2181.3897     -1686.6314      2348.4665      7815.01        5716.5994      13531.609      157166.96      42.832861      42.832861      85.665722          16040 
    138000   3841.1015      303581.15      821.70059      304066.64      303423.95      303252.88      2896.2478     -1191.2755     -686.19669      7963.3849      5895.621       13859.006      157187.39      42.834717      42.834717      85.669434          16040 
    139000   3767.026       301398.44      828.12163      300824.06      301960.02      301411.24      0.01733887     621.83237      1150.1549      7809.8113      5734.456       13544.267      157206.88      42.836487      42.836487      85.672975          16040 
    140000   3778.4121      298656.69      834.54144      298756.19      299072.65      298141.23      991.86193      2586.0835     -2830.1575      7833.417       5829.3231      13662.74       157448.86      42.858454      42.858454      85.716909          16040 
    141000   3787.2358      300144.25      840.96516      299064.57      301479.3       299888.88     -2685.3234     -598.11975      373.95572      7851.7103      5727.8819      13579.592      157230.9       42.838669      42.838669      85.677338          16040 
    142000   3793.1625      303880.69      847.38644      303244.57      302761.07      305636.42     -213.74564      3910.9496     -265.21426      7863.9977      5786.1109      13650.109      156976.73      42.815573      42.815573      85.631146          16040 
    143000   3840.4836      306755.66      853.80883      306542.48      307438.93      306285.58     -1722.8678     -2235.0936     -3179.0031      7962.104       5721.6707      13683.775      156926.65      42.81102       42.81102       85.622039          16040 
    144000   3811.0321      307859.63      860.23062      307045.5       307250.74      309282.63      2591.323       305.7555       1544.6269      7901.045       5714.0131      13615.058      156718.72      42.792102      42.792102      85.584205          16040 
    145000   3819.2696      302291.75      866.65137      302369.54      302329.8       302175.91     -562.34852     -915.49095     -547.07008      7918.1229      5758.1173      13676.24       157149.95      42.831316      42.831316      85.662633          16040 
    146000   3788.4169      304087.39      873.0736       303308.66      304778.49      304175.02     -1266.7327     -1674.1347     -807.83706      7854.159       5793.63        13647.789      157065.67      42.823658      42.823658      85.647315          16040 
    147000   3785.9303      303215.42      879.49717      302271.34      303714.7       303660.21     -537.00718      1700.8606      1538.8811      7849.0038      5685.7191      13534.723      157070.35      42.824083      42.824083      85.648165          16040 
    148000   3809.2248      301561.93      885.91797      302361.29      302092.16      300232.35      1119.2711     -4260.5036      134.88818      7897.298       5836.1085      13733.407      157301.73      42.845101      42.845101      85.690202          16040 
    149000   3796.6846      301678.87      892.34077      300855.59      301712.09      302468.94      1083.7381     -1298.4558     -2238.1798      7871.2997      5620.4411      13491.741      157191.2       42.835063      42.835063      85.670126          16040 
    150000   3818.6525      297019.65      898.76515      297146.82      296634.87      297277.26      647.51199      1928.3086     -1245.3649      7916.8436      5691.1854      13608.029      157395.02      42.853569      42.853569      85.707137          16040 
    151000   3753.6036      299883.52      905.18546      299054.74      299531.25      301064.56     -1155.3405     -1146.0841      1062.1408      7781.9841      5710.4457      13492.43       157209.61      42.836735      42.836735      85.67347           16040 
    152000   3773.3702      301603.03      911.60768      300755.25      301639.38      302414.45     -1112.361       3346.4207     -758.83166      7822.9643      5780.6857      13603.65       157215.15      42.837239      42.837239      85.674478          16040 
    153000   3771.9687      303325.38      918.0311       302484.6       304615.16      302876.4      -57.088582     -2127.5218     -1893.8846      7820.0586      5572.9171      13392.976      156974.29      42.815351      42.815351      85.630703          16040 
    154000   3800.5659      302694.73      924.45445      303714.67      302541.86      301827.67      1.5818183      1250.1767     -4266.4168      7879.3465      5758.5825      13637.929      157156.84      42.831942      42.831942      85.663884          16040 
    155000   3807.4277      302546.5       930.87788      302486.6       303570.74      301582.17     -3891.266      -97.270053     -1637.6675      7893.5723      5711.9893      13605.562      157131.96      42.829681      42.829681      85.659363          16040 
    156000   3780.0841      303478.27      937.30009      303567.9       303678.37      303188.55      3857.9911     -665.51891      317.42216      7836.8835      5747.4742      13584.358      157073.29      42.82435       42.82435       85.6487            16040 
    157000   3828.6218      305291.8       943.72235      304947.56      307250.87      303676.96     -1573.6938      207.26502      265.33452      7937.512       5779.1414      13716.653      157137.73      42.830206      42.830206      85.660411          16040 
    158000   3825.3111      302346.92      950.14404      299508.56      303570.82      303961.38      88.975211      763.14306      601.98259      7930.6482      5670.981       13601.629      157138.72      42.830296      42.830296      85.660592          16040 
    159000   3781.5225      303939.28      956.56644      305169.88      303719.71      302928.25     -3245.8017      67.198232      1119.998       7839.8655      5548.7059      13388.571      156987.15      42.81652       42.81652       85.63304           16040 
    160000   3864.8616      301298.95      962.98909      301344.81      300346.83      302205.21      4330.7151     -4373.9489      385.01032      8012.6444      5607.9442      13620.589      157233.55      42.83891       42.83891       85.677819          16040 
    161000   3819.5687      302407.7       969.40979      302004.71      302099.34      303119.06      4257.2979     -3115.0661     -1579.8307      7918.7431      5725.4069      13644.15       157229.51      42.838543      42.838543      85.677086          16040 
    162000   3791.6538      304387.4       975.83172      304208.89      302504.14      306449.18     -3608.7218      1599.7033      4057.1156      7860.8697      5592.8671      13453.737      157047.09      42.821969      42.821969      85.643937          16040 
    163000   3799.554       300596.65      982.25356      298865.2       302462.98      300461.78      5022.4357     -3362.5402     -2556.5089      7877.2484      5702.265       13579.513      157333.37      42.847973      42.847973      85.695946          16040 
    164000   3755.7433      301263.91      988.67436      299858.74      302903.4       301029.59      1106.8323      475.13659     -3645.6623      7786.4201      5656.4441      13442.864      157153.61      42.831649      42.831649      85.663297          16040 
    165000   3812.167       299351.11      995.09558      297944.23      300026.09      300083.02     -2363.7689     -1295.2413      1470.1326      7903.3978      5686.5125      13589.91       157370.09      42.851306      42.851306      85.702612          16040 
    166000   3791.4518      298304.91      1001.5181      298763.12      297915.58      298236.03      492.82322      2416.7244      2690.5348      7860.4511      5567.0453      13427.496      157259.83      42.841296      42.841296      85.682593          16040 
    167000   3784.4798      299133.67      1007.9397      299794.52      297678.58      299927.92      354.36068      2132.2307     -3601.1205      7845.9967      5702.8028      13548.799      157310.93      42.845936      42.845936      85.691871          16040 
    168000   3801.9269      300357.06      1014.3612      300654.06      299215.04      301202.09     -2861.3821      4019.7396      1335.9154      7882.1679      5751.7769      13633.945      157321.42      42.846888      42.846888      85.693776          16040 
    169000   3782.5515      302614.38      1020.7835      300495.46      303797.45      303550.24      1136.348      -1643.7171      178.45832      7841.9988      5700.5658      13542.565      157156.13      42.831877      42.831877      85.663754          16040 
    170000   3802.3087      301307.44      1027.2058      301721.27      301622.62      300578.43     -1237.7081     -291.78417     -526.99131      7882.9596      5665.7861      13548.746      157227.39      42.83835       42.83835       85.6767            16040 
    171000   3768.3634      299288.38      1033.6302      299288.32      301011.11      297565.7      -1520.371      -859.25467      29.124119      7812.584       5676.8057      13489.39       157295.96      42.844577      42.844577      85.689153          16040 
    172000   3840.5636      297409.57      1040.0526      297333.79      297820.72      297074.21      934.98605      683.08932      3.3613224      7962.2698      5608.7059      13570.976      157488.15      42.86202       42.86202       85.72404           16040 
    173000   3843.7237      301901.2       1046.475       302053.12      303404.86      300245.62     -3011.6014     -1305.3879     -998.59737      7968.8213      5717.9625      13686.784      157319.37      42.846702      42.846702      85.693405          16040 
    174000   3810.7324      303086.48      1052.8968      302697.16      305606.09      300956.18     -3300.6539      70.233364     -1893.7337      7900.4237      5632.018       13532.442      157179.26      42.833979      42.833979      85.667958          16040 
    175000   3843.4945      299239.98      1059.3195      297691.71      299322.07      300706.18      589.67454      1758.8807      552.94539      7968.3462      5653.6651      13622.011      157370.45      42.851339      42.851339      85.702677          16040 
    176000   3789.4415      302238.73      1065.7411      301098.94      303658.97      301958.29     -980.64399      1984.9887      1706.2428      7856.2832      5637.2169      13493.5        157062.86      42.823402      42.823402      85.646804          16040 
    177000   3779.6202      301437.89      1072.1627      299229.66      303076.08      302007.94      2356.3651      751.96257      1447.5554      7835.9217      5681.845       13517.767      157187.93      42.834766      42.834766      85.669532          16040 
    178000   3816.2549      301243.45      1078.5815      303355.24      300380.1       299995.02     -598.74502      3652.5588     -1417.6603      7911.8728      5793.8941      13705.767      157310.04      42.845855      42.845855      85.69171           16040 
    179000   3775.6636      300065.04      1085.0007      300052.58      298772.47      301370.06     -1985.679       1303.8313      2480.1917      7827.7189      5646.9327      13474.652      157231.65      42.838737      42.838737      85.677475          16040 
    180000   3772.5487      298628.03      1091.4194      299030.23      299987.48      296866.39      1151.0632     -929.50553      416.53395      7821.261       5770.9335      13592.195      157360.4       42.850427      42.850427      85.700853          16040 
    181000   3798.7725      301392.74      1097.8375      301756.23      299837.81      302584.18     -460.2232       157.81691     -691.28413      7875.6283      5711.0914      13586.72       157250.32      42.840433      42.840433      85.680866          16040 
    182000   3826.0101      300562.13      1104.2568      300343.04      301518.6       299824.75     -587.27394     -57.275517      131.83451      7932.0974      5735.9         13667.997      157324.42      42.847161      42.847161      85.694322          16040 
    183000   3775.7626      300490.54      1110.6735      299180.76      300029.17      302261.69      2121.2388      31.98697      -2794.4585      7827.9241      5712.0935      13540.018      157198.75      42.835749      42.835749      85.671498          16040 
    184000   3828.5923      301116.76      1117.0911      300927.56      300504.47      301918.24      557.29375      399.74209      2034.8725      7937.4509      5752.96        13690.411      157323.37      42.847065      42.847065      85.69413           16040 
    185000   3792.652       300771.71      1123.5117      302800.9       299280.18      300234.05      170.47921     -1054.344      -1319.2992      7862.9394      5723.8828      13586.822      157157.37      42.83199       42.83199       85.66398           16040 
    186000   3810.9181      302607.98      1129.9325      304009.4       301839.08      301975.47      1218.8271      2249.6409      1899.0297      7900.8085      5682.3045      13583.113      157178.77      42.833934      42.833934      85.667868          16040 
    187000   3824.9617      300907.13      1136.3519      299423.48      301315.11      301982.8       1227.1272     -504.91461     -1224.816       7929.9238      5690.7786      13620.702      157243.84      42.839844      42.839844      85.679688          16040 
    188000   3805.0489      303179.88      1142.7728      303396.95      303618.48      302524.21     -118.72434     -705.89178      140.60256      7888.6406      5767.4307      13656.071      157246.98      42.840129      42.840129      85.680258          16040 
    189000   3788.6198      303082.94      1149.1934      303707.79      302487.85      303053.18     -182.80663     -326.58584      1896.7998      7854.5798      5693.1227      13547.703      157085.78      42.825485      42.825485      85.650971          16040 
    190000   3755.4506      300676.09      1155.6137      298747.04      301241.22      302040.01      744.76786      2269.5083      3274.3023      7785.8132      5686.8344      13472.648      157142.64      42.830652      42.830652      85.661304          16040 
    191000   3806.89        297905.51      1162.0358      297972.26      298649.54      297094.74     -1275.9669     -3109.8604     -2846.2216      7892.4576      5679.7744      13572.232      157411.85      42.855097      42.855097      85.710193          16040 
    192000   3758.9591      300399.94      1168.4552      299649.51      300530.13      301020.19      1887.6898     -318.25252      1616.5081      7793.0871      5624.1168      13417.204      157218.86      42.837576      42.837576      85.675152          16040 
    193000   3777.4558      300886.42      1174.8768      301067.09      300922.72      300669.44      4532.8698      3473.0382      1834.181       7831.4344      5762.2792      13593.714      157292.28      42.844242      42.844242      85.688485          16040 
    194000   3810.7244      301327.19      1181.2977      298853.22      301736.72      303391.62     -1494.8326      799.26756      453.00328      7900.4071      5749.9207      13650.328      157184.84      42.834486      42.834486      85.668971          16040 
    195000   3772.4704      303180.76      1187.7169      304431.4       303247.27      301863.61     -9.5534283     -55.4346       -1967.2263      7821.0987      5558.7773      13379.876      156966.39      42.814633      42.814633      85.629266          16040 
    196000   3804.3295      301802.14      1194.1376      303123.81      300469.01      301813.61     -129.14201      617.80359     -840.5084       7887.1491      5700.2462      13587.395      157112.8       42.827941      42.827941      85.655881          16040 
    197000   3804.1436      303109.07      1200.5605      300723.61      304446.65      304156.94     -1062.0107     -551.15962     -900.02822      7886.7638      5755.7516      13642.515      157189.93      42.834948      42.834948      85.669895          16040 
    198000   3799.7773      301026         1206.9801      299058.67      301743.34      302275.97      1076.1211     -357.00766      149.88534      7877.7115      5590.797       13468.508      157225.88      42.838213      42.838213      85.676426          16040 
    199000   3804.3624      299506.7       1213.3993      299594.11      300084.06      298841.93     -868.73694      2232.7173     -2390.9392      7887.2173      5593.8988      13481.116      157204.13      42.836238      42.836238      85.672476          16040 
    200000   3800.8317      297753.15      1219.8258      296962.11      298579.84      297717.49      224.43324      2492.4143      98.835891      7879.8975      5697.0243      13576.922      157419.17      42.855761      42.855761      85.711522          16040 
    201000   3800.5879      299504.5       1226.2443      299737.56      300447.54      298328.4       707.50639     -467.71965     -835.10684      7879.3919      5621.1956      13500.588      157272.8       42.842474      42.842474      85.684948          16040 
    202000   3807.1766      297577.07      1232.6634      298328.16      298756.04      295647.02     -626.64338      879.5415      -1515.2291      7893.0518      5639.1695      13532.221      157411.7       42.855083      42.855083      85.710166          16040 
    203000   3809.9914      300296.18      1239.0839      300468.79      300254.32      300165.43      1928.2109      2698.486      -1353.8498      7898.8873      5659.5365      13558.424      157314.04      42.846219      42.846219      85.692437          16040 
    204000   3754.255       297995.6       1245.5051      298555.03      297592.64      297839.12     -1881.117      -3800.532       2119.4277      7783.3345      5674.7122      13458.047      157336.32      42.848241      42.848241      85.696481          16040 
    205000   3819.8913      295622.07      1251.9267      294556.83      295455.98      296853.39     -994.88936     -3078.5663     -799.36522      7919.412       5676.0388      13595.451      157506.11      42.863648      42.863648      85.727297          16040 
    206000   3790.7837      298015.18      1258.3459      298240.44      298427.94      297377.17      1757.0098      1208.2866     -2819.4608      7859.0658      5622.8715      13481.937      157306.57      42.84554       42.84554       85.691079          16040 
    207000   3727.2544      298983.78      1264.7656      297032.77      298118.06      301800.5      -2940.9508      1195.3903     -1395.6933      7727.3567      5705.2643      13432.621      157298.65      42.844821      42.844821      85.689642          16040 
    208000   3779.7588      296093.77      1271.1855      296204.44      296918.47      295158.4      -339.88451      2079.6617     -102.24983      7836.2091      5694.6538      13530.863      157517.92      42.86472       42.86472       85.72944           16040 
    209000   3778.2822      298161.03      1277.6041      298620.06      297033.37      298829.65      1931.7411      1795.7778      603.49323      7833.1477      5593.1735      13426.321      157279.34      42.843068      42.843068      85.686136          16040 
    210000   3786.0747      297928.96      1284.0273      298196.1       298261.44      297329.35     -2480.9314     -384.74539      3634.6131      7849.3033      5703.2666      13552.57       157423.68      42.85617       42.85617       85.71234           16040 
    211000   3757.9275      298564.98      1290.4476      298811.77      298860.73      298022.44      1658.8383     -3911.5065      421.32228      7790.9483      5637.7586      13428.707      157363.24      42.850684      42.850684      85.701369          16040 
    212000   3776.9699      299549.9       1296.8669      299747         299424.11      299478.6      -2465.908      -2592.5709     -1152.8709      7830.427       5718.6813      13549.108      157371.48      42.851433      42.851433      85.702866          16040 
    213000   3769.6621      301279.13      1303.2873      302635.77      301888.56      299313.07     -723.92716     -414.42759      678.07042      7815.2766      5641.2287      13456.505      157190.19      42.834971      42.834971      85.669943          16040 
    214000   3765.8625      299702.68      1309.7087      299943.32      299908.96      299255.77      2481.5727     -592.77528      2702.5457      7807.3991      5645.1963      13452.595      157283.84      42.843477      42.843477      85.686953          16040 
    215000   3826.0976      300866.84      1316.1274      301930.28      300267.61      300402.63     -2521.6015     -1428.634       3477.2308      7932.2788      5660.3509      13592.63       157276.61      42.84282       42.84282       85.685639          16040 
    216000   3830.6733      299510.38      1322.5482      300795.65      299876.87      297858.63     -741.09243     -218.09799     -694.47808      7941.7653      5699.6332      13641.398      157375.77      42.851821      42.851821      85.703643          16040 
    217000   3795.5501      301093.77      1328.9679      299552.15      301789.87      301939.3       1792.2319     -5223.8369     -2486.5633      7868.9476      5701.0332      13569.981      157287.1       42.843772      42.843772      85.687545          16040 
    218000   3783.9892      297787.15      1335.3885      297524.8       298291.68      297544.96     -823.09705      2614.0921     -397.57132      7844.9796      5712.023       13557.003      157333.41      42.847977      42.847977      85.695954          16040 
    219000   3776.9548      302418.75      1341.808       302140.21      300591.52      304524.52      1812.7077      995.76428      3079.7643      7830.3958      5671.7883      13502.184      157196.3       42.835526      42.835526      85.671053          16040 
    220000   3791.0523      300745.3       1348.2273      301163.16      301048.23      300024.5      -221.58754     -1874.8583     -49.546967      7859.6228      5698.6545      13558.277      157247.98      42.84022       42.84022       85.68044           16040 
    221000   3835.5721      303910.52      1354.6484      302690.05      305177.48      303864.02     -532.14021      2173.1096     -2817.0255      7951.9213      5684.6723      13636.594      157144.72      42.830841      42.830841      85.661682          16040 
    222000   3813.1412      307053.53      1361.0717      308453.87      306041.38      306665.35     -349.0545      -959.2484      -213.88147      7905.4175      5696.442       13601.86       156889.94      42.807681      42.807681      85.615362          16040 
    223000   3859.7124      306212.97      1367.4917      305239.26      307252.97      306146.68     -334.09146      1449.102       52.668091      8001.9691      5652.0754      13654.045      157003.33      42.817991      42.817991      85.635983          16040 
    224000   3804.058       304943.7       1373.9131      304157.62      305618.06      305055.42      863.79957     -2480.6933     -1046.3416      7886.5862      5661.1607      13547.747      156917.2       42.81016       42.81016       85.620321          16040 
    225000   3829.7444      301868.11      1380.3319      299336.99      303139.01      303128.34     -1975.5745      169.47255     -2316.1147      7939.8395      5661.0891      13600.929      157236.43      42.839171      42.839171      85.678342          16040 
    226000   3780.3047      302915.14      1386.751       301927.38      303988.21      302829.82     -1794.2334     -1593.8268     -1278.648       7837.3407      5626.0028      13463.343      157100.87      42.826857      42.826857      85.653713          16040 
    227000   3799.2597      303052.07      1393.1695      303093.52      302572.48      303490.22     -731.74746     -1204.034       774.49464      7876.6384      5722.0804      13598.719      157176.73      42.833749      42.833749      85.667497          16040 
    228000   3795.4566      302676.1       1399.587       303123.72      301957.01      302947.57     -561.02922      96.413184     -571.27511      7868.7537      5707.557       13576.311      157030.64      42.820474      42.820474      85.640948          16040 
    229000   3832.7503      304906.82      1406.0073      304194.75      306387.71      304137.99      1675.4682     -1262.7528     -2187.6327      7946.0711      5753.3317      13699.403      157003         42.817961      42.817961      85.635923          16040 
    230000   3804.4564      303452.93      1412.4281      304439.14      301776.8       304142.84      779.38542      1712.3014      3733.4968      7887.4122      5742.9139      13630.326      157159.93      42.832223      42.832223      85.664445          16040 
    231000   3795.1161      302537.1       1418.8462      302969.24      302137.4       302504.66     -421.93711      1357.5456      470.54184      7868.0478      5623.5837      13491.631      157173.13      42.833421      42.833421      85.666842          16040 
    232000   3791.4332      301261.01      1425.2663      303374.85      299850.83      300557.35      1731.4484      2254.8356     -960.37012      7860.4124      5683.7927      13544.205      157235.64      42.839099      42.839099      85.678199          16040 
    233000   3833.0514      302968.62      1431.6868      302717.78      302624.33      303563.74      922.14992     -159.7072       1012.9041      7946.6955      5632.8724      13579.568      157162.63      42.832468      42.832468      85.664936          16040 
    234000   3857.3679      303355.88      1438.1076      304111.73      303217.89      302738.04      592.35268      3007.0413     -1882.5436      7997.1085      5667.1548      13664.263      157170.08      42.833145      42.833145      85.66629           16040 
    235000   3797.1799      299670.53      1444.5305      299973.84      302351.38      296686.38     -624.7981       942.33342      3433.7132      7872.3266      5574.834       13447.161      157158.29      42.832073      42.832073      85.664146          16040 
    236000   3769.768       299314.76      1450.9513      299519.5       298347.35      300077.42      484.04211      3313.2719      1780.5709      7815.496       5712.0955      13527.591      157363.32      42.850692      42.850692      85.701384          16040 
    237000   3826.1464      299247.9       1457.3712      298665.06      299028.4       300050.24      488.08578     -2231.1556     -1.2823197      7932.38        5586.0716      13518.452      157398.46      42.853881      42.853881      85.707762          16040 
    238000   3831.2753      294927.4       1463.7936      294791.8       295742.61      294247.78      942.45904     -3047.768       1748.2595      7943.0132      5627.5198      13570.533      157548.16      42.867463      42.867463      85.734925          16040 
    239000   3795.9482      296252.51      1470.2125      296343.97      296228.96      296184.6       2021.0817      9.3609169     -789.14093      7869.7731      5596.7635      13466.537      157561.64      42.868685      42.868685      85.73737           16040 
    240000   3758.8036      295937.19      1476.6335      295472.46      296987.78      295351.32     -2058.5199      1703.9492      3718.1232      7792.7646      5565.1397      13357.904      157439.27      42.857584      42.857584      85.715169          16040 
    241000   3775.1832      296975.98      1483.0544      295771.28      297649.21      297507.43     -760.94862      1624.6638      112.89046      7826.7228      5664.6928      13491.416      157352.82      42.849739      42.849739      85.699478          16040 
    242000   3800.282       297239.93      1489.4745      296095.82      296069.15      299554.83     -389.51206      1479.7999      801.23362      7878.7579      5742.2507      13621.009      157537.99      42.86654       42.86654       85.73308           16040 
    243000   3802.6035      300592.88      1495.8953      299799.49      301898.47      300080.69     -2249.4331      668.66753     -1177.3266      7883.5707      5605.6019      13489.173      157282.25      42.843332      42.843332      85.686664          16040 
    244000   3859.5466      298689.06      1502.3152      299696.36      297680.95      298689.86     -1248.0793      552.77919      2510.1671      8001.6253      5715.5324      13717.158      157461.34      42.859587      42.859587      85.719174          16040 
    245000   3758.0415      298188.87      1508.7379      297169.75      297407.04      299989.8      -1338.4894     -970.53566      204.24859      7791.1847      5650.8288      13442.014      157364.14      42.850766      42.850766      85.701532          16040 
    246000   3799.6287      296032.89      1515.1586      295898.42      295843.13      296357.13     -552.25099      2126.7682      1472.001       7877.4034      5678.1722      13555.576      157490.79      42.862259      42.862259      85.724518          16040 
    247000   3793.8689      296490.24      1521.5779      297373.58      295249.1       296848.04      4276.155       2568.1696     -804.6907       7865.4621      5579.618       13445.08       157389.94      42.853108      42.853108      85.706216          16040 
    248000   3773.2534      298993.23      1527.9959      300149.97      299657.13      297172.57     -1151.1399     -863.6943       2184.9507      7822.7221      5697.9315      13520.654      157295.96      42.844577      42.844577      85.689153          16040 
    249000   3818.8306      300854.04      1534.4138      299727.98      301402.03      301432.12     -683.78503      4140.1689      766.22696      7917.2129      5693.5139      13610.727      157344.06      42.848944      42.848944      85.697888          16040 
    250000   3802.9617      299364.73      1540.8325      300047.28      300120.52      297926.39      869.54622     -822.60152     -2315.3918      7884.3135      5757.9593      13642.273      157355.64      42.849994      42.849994      85.699989          16040 
    251000   3798.0322      299981.44      1547.2492      298280.63      301586.23      300077.46     -145.04707      127.74575     -2731.2659      7874.0936      5598.908       13473.002      157266.9       42.841939      42.841939      85.683877          16040 
    252000   3762.4221      298891.69      1553.6671      297155.32      299549         299970.76      1419.2236      401.78948     -861.79816      7800.2666      5539.9317      13340.198      157331.32      42.847787      42.847787      85.695574          16040 
    253000   3794.5381      299783.33      1560.085       297492.42      301558.22      300299.36      176.13016      925.33391      597.45285      7866.8494      5600.63        13467.479      157336.58      42.848264      42.848264      85.696529          16040 
    254000   3766.1556      299826.18      1566.5041      300640.38      299495.04      299343.11     -945.97033      2648.7906     -85.883289      7808.0069      5663.6978      13471.705      157260.42      42.84135       42.84135       85.6827            16040 
    255000   3802.7547      301452.23      1572.922       302867.22      299883.08      301606.4       938.23675      574.01082      1194.4097      7883.8842      5710.3173      13594.202      157288.6       42.843908      42.843908      85.687817          16040 
    256000   3805.4744      304605.95      1579.3409      302466.39      302241.64      309109.81      4048.6966     -59.767881     -1662.5143      7889.5227      5614.8669      13504.39       157080.44      42.825         42.825         85.649999          16040 
    257000   3784.0829      299523.59      1585.7594      297011.83      300249.63      301309.32      391.09384      681.23087     -42.055942      7845.1737      5711.2061      13556.38       157271.67      42.842371      42.842371      85.684743          16040 
    258000   3751.2891      301113.74      1592.1775      301670.47      299560.42      302110.33      4146.7314     -2059.5066     -220.81915      7777.1856      5667.7079      13444.894      157218.2       42.837515      42.837515      85.675031          16040 
    259000   3791.7599      298101.29      1598.5952      297556.87      299331.84      297415.17      1015.3978      1221.6893     -1304.9439      7861.0897      5730.5483      13591.638      157395.57      42.853619      42.853619      85.707238          16040 
    260000   3809.9553      298647.91      1605.0143      299112.71      298116.69      298714.32     -467.24085      18.36222       271.04165      7898.8126      5589.871       13488.684      157344.17      42.848954      42.848954      85.697907          16040 
    261000   3782.7905      299235.08      1611.4333      298265.97      299766.38      299672.9       3348.2708      1609.0919      4215.4352      7842.4943      5545.3585      13387.853      157290.2       42.844054      42.844054      85.688108          16040 
    262000   3823.7303      296826.16      1617.8534      295433.1       297158.26      297887.13     -2705.4827     -1263.3899     -121.2696       7927.3708      5561.6059      13488.977      157572.83      42.8697        42.8697        85.739401          16040 
    263000   3758.4514      295063.4       1624.2742      295036.59      295633.67      294519.94      1002.2817     -577.56282      1516.109       7792.0345      5619.4501      13411.485      157567.44      42.869211      42.869211      85.738423          16040 
    264000   3783.592       294477         1630.6935      294065.5       292372.77      296992.74     -5300.6718     -490.59639     -4504.1921      7844.1561      5551.9096      13396.066      157513.73      42.86434       42.86434       85.728681          16040 
    265000   3803.9818      296911.95      1637.1117      296319.47      295323.87      299092.51     -1408.3364     -417.22335     -429.28893      7886.4283      5631.6986      13518.127      157541.56      42.866864      42.866864      85.733728          16040 
    266000   3832.2616      299528.58      1643.5325      300542.06      300415.15      297628.53     -3083.1525     -2276.4676      254.41414      7945.0581      5556.9447      13502.003      157314.31      42.846243      42.846243      85.692485          16040 
    267000   3802.1067      298845.07      1649.9502      300174.52      298213.6       298147.08      2170.4236     -225.84958     -1375.0116      7882.5407      5697.8511      13580.392      157480.4       42.861316      42.861316      85.722633          16040 
    268000   3760.3308      297607.84      1656.3684      298025.97      298563.15      296234.4      -2065.7199      236.9445       1767.7209      7795.9308      5639.1752      13435.106      157320.62      42.846815      42.846815      85.693631          16040 
    269000   3781.1021      298228.05      1662.7883      298398.73      299934.58      296350.84     -1018.3659     -2831.2323      453.14341      7838.9939      5639.2551      13478.249      157393.43      42.853425      42.853425      85.70685           16040 
    270000   3781.186       293935.65      1669.2082      294179.47      293416.68      294210.8      -1333.9538      2605.7195      2084.2802      7839.168       5542.2081      13381.376      157601.41      42.872292      42.872292      85.744583          16040 
    271000   3802.2561      295824.51      1675.627       294755.95      295878.94      296838.62     -2642.2396      3266.0997      597.62609      7882.8504      5697.5035      13580.354      157612.02      42.873254      42.873254      85.746508          16040 
    272000   3764.1611      296083.54      1682.0468      299252.54      294475.68      294522.4       2668.7266      1723.0147     -4197.1928      7803.8718      5528.7352      13332.607      157343.54      42.848896      42.848896      85.697793          16040 
    273000   3802.2436      298974.59      1688.4639      297811.23      298965.17      300147.36     -1440.3265     -677.30979      1785.5771      7882.8246      5630.0143      13512.839      157341.97      42.848754      42.848754      85.697508          16040 
    274000   3786.4709      301108.47      1694.8824      299336.31      302796.71      301192.39      59.856339     -2361.7521      2781.3142      7850.1246      5660.6617      13510.786      157172.85      42.833396      42.833396      85.666792          16040 
    275000   3746.2895      302036.03      1701.3024      302589.16      301982.38      301536.54      19.744112     -787.01648      2214.948       7766.8204      5654.007       13420.827      157056.25      42.822801      42.822801      85.645602          16040 
    276000   3783.4545      298578.73      1707.7206      299837.6       296329.18      299569.43     -3417.5024     -622.32394     -452.5157       7843.871       5687.7087      13531.58       157274.03      42.842585      42.842585      85.685171          16040 
    277000   3783.3878      303495.4       1714.1375      303086.12      303000.25      304399.84     -1760.2565      869.80492      1797.1824      7843.7326      5609.3513      13453.084      157066.35      42.82372       42.82372       85.647439          16040 
    278000   3808.6593      302654.19      1720.5547      300612.35      303404.5       303945.7      -499.07562      3095.8148      264.27389      7896.1256      5713.2048      13609.33       157185.66      42.83456       42.83456       85.669119          16040 
    279000   3799.8857      305700.17      1726.9749      306189.58      307611.18      303299.75      711.48439     -1243.4476     -1690.4613      7877.9363      5601.4382      13479.375      156942.41      42.812452      42.812452      85.624904          16040 
    280000   3845.7674      303170.76      1733.3945      304666.8       302998.51      301846.98      572.4389      -1274.617       1473.4929      7973.0583      5635.7055      13608.764      157178.25      42.833887      42.833887      85.667774          16040 
    281000   3777.3164      301237.04      1739.8128      301279.66      301668.06      300763.41     -3266.4698      839.25685     -1006.7986      7831.1454      5519.5855      13350.731      157131.36      42.829627      42.829627      85.659254          16040 
    282000   3862.5773      300962.23      1746.2307      301481.64      300547.96      300857.09      882.67505     -2225.2916      974.87127      8007.9086      5578.3057      13586.214      157179.06      42.83396       42.83396       85.66792           16040 
    283000   3797.5704      301578.51      1752.6512      300623.66      301088.45      303023.42     -1873.8754      220.07951      1667.8689      7873.1361      5731.3423      13604.478      157206.6       42.836462      42.836462      85.672924          16040 
    284000   3781.6453      303009.1       1759.0691      302554.77      301216.86      305255.65      2413.8652     -2216.9947     -958.93952      7840.1201      5608.1124      13448.232      157081.34      42.825082      42.825082      85.650164          16040 
    285000   3836.9287      298881.15      1765.4904      297412.12      300922.43      298308.9      -5097.3877     -3479.8753      872.15369      7954.7339      5575.399       13530.133      157314.19      42.846232      42.846232      85.692463          16040 
    286000   3785.4211      298136.89      1771.9113      297080.6       298855.04      298475.03     -2939.3235     -3161.5049      2438.8314      7847.9482      5588.0827      13436.031      157210.17      42.836786      42.836786      85.673573          16040 
[...]
   3930000   3650.6888      298317.31      6692.8141      294655.35      296086.7       304209.87      771.78386      627.28726      3167.6745      7568.6206      13205.894      20774.514      160412.87      43.012977      43.012977      86.704214          16040 
   3931000   3609.3293      299850.21      6700.0018      300906.9       294101.66      304542.07      867.25735     -829.48772     -4583.8988      7482.874       13276.717      20759.591      160491.09      43.019968      43.019968      86.718305          16040 
   3932000   3658.1602      299230.18      6707.184       298428.39      293933.29      305328.85     -496.06155     -3312.0816      2344.2068      7584.1103      13205.593      20789.704      160328.88      43.005469      43.005469      86.689078          16040 
   3933000   3642.394       302060.37      6714.3705      299080.32      301154.44      305946.35     -729.00251     -3116.6811     -3545.2231      7551.4238      13275.062      20826.486      160131.08      42.987776      42.987776      86.653415          16040 
   3934000   3648.7582      305027.61      6721.5519      299805.13      304528.24      310749.44      1334.9787      1759.198      -1481.7577      7564.6182      13282.767      20847.386      160012.25      42.97714       42.97714       86.631975          16040 
   3935000   3691.3508      302498.2       6728.7381      299912.19      299202.07      308380.34     -733.89859      3132.4035      2443.2766      7652.9212      13178.307      20831.228      160093.75      42.984435      42.984435      86.646679          16040 
   3936000   3637.4912      301961.59      6735.9337      303149.13      297619.21      305116.44      295.79757     -2045.1162     -440.29471      7541.2593      13295.21       20836.469      160064.16      42.981787      42.981787      86.641341          16040 
   3937000   3634.9175      296541.91      6743.1213      293361.76      294355.11      301908.86      2987.8302      547.75359     -2034.1176      7535.9236      13228.837      20764.76       160445.25      43.015871      43.015871      86.710047          16040 
   3938000   3663.1221      300622.32      6750.3059      296931.58      299171.83      305763.54     -2856.4918      2803.7959     -1870.7434      7594.3973      13235.955      20830.352      160086.05      42.983746      42.983746      86.645291          16040 
   3939000   3639.8705      300595.57      6757.4907      300152.95      297372.97      304260.79      2196.5304      3798.3578      1960.7821      7546.1922      13296.792      20842.984      160020.11      42.977844      42.977844      86.633394          16040 
   3940000   3635.9747      296705.8       6764.6771      296400.77      297021.14      296695.49      311.84889      2645.4857     -642.93841      7538.1154      13229.365      20767.48       160421.72      43.013768      43.013768      86.705809          16040 
   3941000   3594.4922      304295.34      6771.861       300637.02      303478.85      308770.14     -3624.3795      2652.6829      1560.0412      7452.1137      13420.805      20872.919      159853.13      42.962889      42.962889      86.603248          16040 
   3942000   3626.0323      301352.13      6779.0451      298809.87      298518.21      306728.33     -992.22614      1908.6188     -223.71129      7517.5027      13316.228      20833.73       160063.58      42.981735      42.981735      86.641236          16040 
   3943000   3590.7121      303159.94      6786.2369      300058.72      302254.7       307166.39      2452.5765     -657.53739     -1941.3272      7444.2768      13410.3        20854.576      159948.49      42.971431      42.971431      86.620467          16040 
   3944000   3630.2203      299604.84      6793.4191      296624.48      298446.85      303743.18      1319.9177      786.74849     -1666.5844      7526.1854      13254.001      20780.186      160332.76      43.005815      43.005815      86.689777          16040 
   3945000   3602.0421      298464.18      6800.6032      297484.27      293215.63      304692.65     -740.94977     -625.62751      124.81856      7467.7661      13310.148      20777.914      160341.79      43.006623      43.006623      86.691406          16040 
   3946000   3623.7774      297542.19      6807.7885      297779.23      295613.1       299234.25      3801.9791      4341.453       1942.3576      7512.8279      13263.712      20776.54       160347.29      43.007115      43.007115      86.692396          16040 
   3947000   3582.7027      297568.77      6814.9718      294711.76      297411.66      300582.88     -2432.1241      168.16138     -1249.2165      7427.6716      13336.054      20763.726      160413.95      43.013074      43.013074      86.704409          16040 
   3948000   3592.0691      298961         6822.1489      295923.75      296783.75      304175.5      -984.08363      691.98864      2910.3417      7447.0901      13327.334      20774.424      160354.89      43.007795      43.007795      86.693767          16040 
   3949000   3602.1907      294968         6829.3266      294710.79      289089.75      301103.48      4775.1245     -646.25824     -275.22016      7468.0743      13243.612      20711.686      160690.15      43.037746      43.037746      86.754141          16040 
   3950000   3599.9476      302528.18      6836.502       300985.45      299571.48      307027.62     -862.91719     -4169.4978      1422.1403      7463.4239      13315.475      20778.899      160324.95      43.005117      43.005117      86.688369          16040 
   3951000   3595.1679      297173.65      6843.6762      294528.24      294986.57      302006.13      3390.3963      3366.9127      2312.2945      7453.5146      13278.664      20732.179      160575.91      43.027545      43.027545      86.733579          16040 
   3952000   3577.8732      299543.07      6850.8548      294054.34      297468.78      307106.08     -1315.6424     -2277.4856     -772.632        7417.6591      13380.745      20798.405      160216.77      42.995442      42.995442      86.668868          16040 
   3953000   3593.8439      299097.69      6858.0349      299800.69      293235.34      304257.04     -191.89768     -788.903        1429.2966      7450.7695      13294.989      20745.758      160496.78      43.020475      43.020475      86.719328          16040 
   3954000   3604.5851      302790.72      6865.2184      301855.48      299589.09      306927.59     -2672.196       994.81723     -4699.2093      7473.0383      13339.176      20812.214      160141.35      42.988695      42.988695      86.655266          16040 
   3955000   3621.9826      302662.1       6872.3953      297740.14      301319.12      308927.05     -355.92939     -1689.6794      2386.1053      7509.1069      13311.076      20820.182      160098.05      42.98482       42.98482       86.647456          16040 
   3956000   3621.6515      297977.72      6879.5732      293208.36      296029.78      304695.03      1651.7451      3054.0021      2433.288       7508.4204      13254.857      20763.277      160399.88      43.011816      43.011816      86.701874          16040 
   3957000   3607.9847      301568.78      6886.7536      300110.87      300573.27      304022.19     -2239.4425     -1773.058      -3296.6473      7480.0864      13282.728      20762.815      160399.72      43.011801      43.011801      86.701844          16040 
   3958000   3614.5105      295916.19      6893.9288      293325.3       292952.72      301470.56      2671.314       692.7936      -587.57295      7493.6158      13238.41       20732.026      160559.22      43.026053      43.026053      86.730573          16040 
   3959000   3594.4946      298657.79      6901.1068      296352.59      294830.7       304790.07      93.924969     -1908.9269     -2443.5157      7452.1187      13331.287      20783.406      160280.92      43.00118       43.00118       86.680434          16040 
   3960000   3595.0437      299199.85      6908.2896      296779.32      295635.79      305184.43      2087.9758      1167.6643      502.19779      7453.257       13318.531      20771.788      160341.63      43.006609      43.006609      86.691377          16040 
   3961000   3647.5041      300027.76      6915.4729      298173.68      295075.88      306833.72     -229.08868     -1209.179      -1495.8535      7562.0182      13197.231      20759.249      160408.48      43.012584      43.012584      86.703422          16040 
   3962000   3655.1648      300413.13      6922.6538      299217.75      293265.78      308755.86     -266.76602      1825.5671     -4544.6289      7577.9003      13183.186      20761.086      160399.52      43.011784      43.011784      86.701809          16040 
   3963000   3612.9961      297250.28      6929.8316      290315.51      298969.18      302466.14      643.7137       1390.9599      1562.298       7490.4761      13214.83       20705.306      160697.67      43.038418      43.038418      86.755496          16040 
   3964000   3599.4631      298897.45      6937.0116      298521.17      296981.58      301189.59     -1221.13        5748.6206     -1873.2111      7462.4194      13289.892      20752.311      160438.33      43.015252      43.015252      86.7088            16040 
   3965000   3622.5206      302203.43      6944.193       300217.3       300682.14      305710.85     -4527.8762     -2434.2563      253.92242      7510.2222      13299.225      20809.447      160127.74      42.987477      42.987477      86.652812          16040 
   3966000   3609.1421      299632.48      6951.3702      295928.39      299192.85      303776.21     -1318.5812      849.84425     -1457.1723      7482.4859      13314.348      20796.834      160194.15      42.993419      42.993419      86.664789          16040 
   3967000   3617.3264      303689.06      6958.5489      297880.79      303863.6       309322.8       1735.6425      285.638        889.86118      7499.4536      13317.793      20817.247      160083.28      42.983499      42.983499      86.644792          16040 
   3968000   3582.3543      302358         6965.7293      300344.08      299513.91      307216.03     -1927.6051     -1675.6456     -2519.0608      7426.9493      13364.276      20791.226      160222.1       42.99592       42.99592       86.66983           16040 
   3969000   3597.9377      298990.74      6972.9102      296908.22      293997.62      306066.37      1077.2234     -1161.9053      3634.2919      7459.2569      13259.871      20719.128      160607.56      43.030372      43.030372      86.739277          16040 
   3970000   3607.5212      301390.05      6980.0878      302970.5       298265.44      302934.2       338.08299      2328.1624     -770.77919      7479.1255      13311.557      20790.683      160219.74      42.995708      42.995708      86.669404          16040 
   3971000   3606.689       306444.31      6987.2625      303142.19      304153.92      312036.82      1114.8603      3161.4283      1998.6383      7477.4002      13359.787      20837.187      159971.98      42.973534      42.973534      86.624705          16040 
   3972000   3618.5562      300191.24      6994.4388      298849.5       295181.01      306543.2       3231.314      -2995.96       -1350.4382      7502.0033      13269.826      20771.829      160320.14      43.004687      43.004687      86.687503          16040 
   3973000   3600.8717      295935.15      7001.6177      294240.5       292108.6       301456.36      927.94504      3266.9237      3329.0099      7465.3397      13263.619      20728.958      160548.82      43.025125      43.025125      86.728701          16040 
   3974000   3606.7753      297794.83      7008.7971      294407.59      295481.67      303495.23      170.89285      2627.6305     -662.16153      7477.5791      13287.983      20765.562      160356.04      43.007897      43.007897      86.693973          16040 
   3975000   3578.5543      299127.05      7015.9786      296912.65      293655.13      306813.38      2670.3087     -1525.176      -877.44811      7419.0713      13343.765      20762.836      160368.33      43.008995      43.008995      86.696187          16040 
   3976000   3605.01        300629.82      7023.1595      297201.69      299793.33      304894.43      2150.4469      451.94421      685.26971      7473.9192      13321.89       20795.809      160192.64      42.993284      42.993284      86.664517          16040 
   3977000   3591.2732      304081.34      7030.3397      300644.91      303006.41      308592.71      1077.805       2464.3485      566.02534      7445.4401      13375.134      20820.574      160059.66      42.981384      42.981384      86.640529          16040 
   3978000   3618.829       302346.64      7037.5161      299020.89      300355.18      307663.85      2135.9423     -1202.7724     -2667.6676      7502.5688      13302.331      20804.899      160141.84      42.988739      42.988739      86.655354          16040 
   3979000   3609.8125      299415.75      7044.6991      296405.25      293583.4       308258.6      -648.31007      5152.8929     -174.85875      7483.8758      13291.186      20775.062      160299.84      43.002872      43.002872      86.683844          16040 
   3980000   3651.5686      300775.31      7051.8783      297979.13      295749.02      308597.77      410.44101     -1444.2405     -2536.5719      7570.4447      13222.903      20793.348      160197.44      42.993714      42.993714      86.665383          16040 
   3981000   3606.4867      298572.05      7059.0583      294949.06      297103.12      303663.97      2720.5509      856.06612     -277.163        7476.9808      13275.744      20752.725      160415.33      43.013197      43.013197      86.704657          16040 
   3982000   3633.9979      293330.67      7066.2354      289403.32      292111.43      298477.27      174.52788     -1001.7113     -2711.4731      7534.017       13145.757      20679.774      160802.86      43.047806      43.047806      86.774421          16040 
   3983000   3610.8245      296849.6       7073.4115      296062.8       292858.59      301627.42     -1736.9544      93.360652      924.59999      7485.9739      13191.741      20677.715      160805.02      43.047999      43.047999      86.774809          16040 
   3984000   3643.2257      300936.46      7080.5847      296785.27      298113.82      307910.29     -1088.7156      782.56109      3727.9461      7553.1481      13191.159      20744.307      160446.35      43.015969      43.015969      86.710245          16040 
   3985000   3637.6015      304357.57      7087.7619      302931.2       299071.14      311070.35      3878.0158      2550.1634     -2375.8185      7541.4881      13244.69       20786.178      160216.15      42.995387      42.995387      86.668757          16040 
   3986000   3650.7325      298908.63      7094.9371      295939.35      298487.92      302298.62      933.31907     -3443.1963      648.82443      7568.7113      13152.625      20721.337      160558.62      43.026         43.026         86.730465          16040 
   3987000   3636.4883      301666.68      7102.1241      298645.36      298262.47      308092.21      2866.1581     -1283.7998     -3173.3064      7539.1801      13224.41       20763.59       160333.06      43.005842      43.005842      86.689832          16040 
   3988000   3619.174       295622.68      7109.3021      295885.88      293549.74      297432.42      2551.7071      1488.8363      231.04878      7503.2841      13168.734      20672.018      160818.78      43.049227      43.049227      86.777285          16040 
   3989000   3623.9672      299493.04      7116.4866      297375.32      296712.51      304391.3       2532.8459      4832.0099      1735.6223      7513.2213      13257.024      20770.245      160294.99      43.002439      43.002439      86.68297           16040 
   3990000   3620.78        302687.76      7123.6684      301861.42      299003.41      307198.43     -649.29252     -3827.5192      3531.74        7506.6136      13264.578      20771.191      160288.09      43.001821      43.001821      86.681726          16040 
   3991000   3579.8394      300944.41      7130.8505      298273.86      299624.77      304934.59     -940.00187      2749.6381     -1157.6502      7421.7355      13322.899      20744.634      160430.51      43.014553      43.014553      86.707391          16040 
   3992000   3611.6187      301163.99      7138.031       299779.82      299776.93      303935.21      1197.5902     -5291.7888      2713.1088      7487.6203      13290.303      20777.923      160252.58      42.998646      42.998646      86.675325          16040 
   3993000   3585.2639      298371.88      7145.2084      296515.41      293384.76      305215.47     -1067.8307      5256.8869     -2891.1566      7432.9815      13264.178      20697.16       160682.78      43.037088      43.037088      86.752816          16040 
   3994000   3604.6974      302826.73      7152.3866      299472.18      301185.8       307822.2      -1224.2035     -366.78176      3056.0204      7473.2711      13299.148      20772.419      160279.51      43.001054      43.001054      86.680179          16040 
   3995000   3603.6386      303670.22      7159.5622      303147.3       299917.15      307946.2       367.74003      1722.8423     -169.11722      7471.076       13290.948      20762.024      160331.02      43.00566       43.00566       86.689465          16040 
   3996000   3631.5216      300970.73      7166.7462      299625.09      299175.98      304111.11     -1202.1083     -1686.9957      1918.4065      7528.8833      13213.217      20742.1        160433.49      43.01482       43.01482       86.707929          16040 
   3997000   3605.0602      297563.1       7173.9242      297938.6       292772.53      301978.18     -1746.0824      2907.4894     -855.1474       7474.0234      13254.883      20728.906      160500.37      43.020796      43.020796      86.719976          16040 
   3998000   3632.231       303313.3       7181.0942      300589.3       301664.05      307686.54      1007.8893     -3823.7762      3608.8314      7530.354       13216.936      20747.29       160398.95      43.011733      43.011733      86.701706          16040 
   3999000   3636.3635      303909.4       7188.2761      301312.45      304302.39      306113.36     -1407.514       1163.0858      32.35353       7538.9213      13253.121      20792.043      160160.57      42.990415      42.990415      86.658733          16040 
   4000000   3608.2338      301325.91      7195.4756      300907.56      297562.69      305507.49     -364.82429      219.04301      1207.9833      7480.6028      13287.086      20767.689      160290.87      43.00207       43.00207       86.682228          16040 
Loop time of 7195.48 on 8 procs for 1000000 steps with 16040 atoms

Performance: 6.004 ns/day, 3.997 hours/ns, 138.976 timesteps/s
60.2% CPU use with 1 MPI tasks x 8 OpenMP threads

MPI task timing breakdown:
Section |  min time  |  avg time  |  max time  |%varavg| %total
---------------------------------------------------------------
Pair    | 6920.8     | 6920.8     | 6920.8     |   0.0 | 96.18
Neigh   | 10.593     | 10.593     | 10.593     |   0.0 |  0.15
Comm    | 37.585     | 37.585     | 37.585     |   0.0 |  0.52
Output  | 1.4396     | 1.4396     | 1.4396     |   0.0 |  0.02
Modify  | 200.56     | 200.56     | 200.56     |   0.0 |  2.79
Other   |            | 24.52      |            |       |  0.34

Nlocal:          16040 ave       16040 max       16040 min
Histogram: 1 0 0 0 0 0 0 0 0 0
Nghost:          13675 ave       13675 max       13675 min
Histogram: 1 0 0 0 0 0 0 0 0 0
Neighs:              0 ave           0 max           0 min
Histogram: 1 0 0 0 0 0 0 0 0 0
FullNghs:  1.46781e+06 ave 1.46781e+06 max 1.46781e+06 min
Histogram: 1 0 0 0 0 0 0 0 0 0

Total # of neighbors = 1467812
Ave neighs/atom = 91.509476
Neighbor list builds = 32557
Dangerous builds = 0
Total wall time: 7:42:17
