
atom_style atomic
units metal
boundary p p p
#atom_modify sort 0 0.0
newton on

read_data data.lammps
Reading data file ...
  orthogonal box = (0 0 0) to (43.790145 43.790145 87.58029)
  1 by 1 by 1 MPI processor grid
  reading atoms ...
  16040 atoms
  read_data CPU = 0.040 seconds
# replicate 10 10 20

### interactions

pair_style flare
pair_coeff * * lmp.flare
Reading potential file lmp.flare with DATE: Thu

# compute unc all flare/std/atom L_inv_lmp.flare sparse_desc_lmp.flare
# compute MaxUnc all reduce max c_unc

mass 1 12.011000
mass 2 28.085000

thermo_style custom step temp press cpu pxx pyy pzz pxy pxz pyz ke pe etotal vol lx ly lz atoms    #c_MaxUnc
thermo 1000
timestep 0.0005
restart 100000 restart_*.dat

#################### Equilibrate at P and T_es ##############################
velocity all create $T 41928459 rot yes dist gaussian
velocity all create 3400 41928459 rot yes dist gaussian
fix mom all momentum 1000 linear 1 1 1 angular

fix 1 all npt temp $T $T $(100.0*dt) iso $P $P $(1000.0*dt)
fix 1 all npt temp 3400 $T $(100.0*dt) iso $P $P $(1000.0*dt)
fix 1 all npt temp 3400 3400 $(100.0*dt) iso $P $P $(1000.0*dt)
fix 1 all npt temp 3400 3400 0.050000000000000002776 iso $P $P $(1000.0*dt)
fix 1 all npt temp 3400 3400 0.050000000000000002776 iso 300000 $P $(1000.0*dt)
fix 1 all npt temp 3400 3400 0.050000000000000002776 iso 300000 300000 $(1000.0*dt)
fix 1 all npt temp 3400 3400 0.050000000000000002776 iso 300000 300000 0.5
dump 1 all custom 1000 1equil.bin id type x y z vx vy vz
run   10000 # report performance
Neighbor list info ...
  update every 1 steps, delay 10 steps, check yes
  max neighbors/atom: 2000, page size: 100000
  master list distance cutoff = 6
  ghost atom cutoff = 6
  binsize = 6, bins = 8 8 15
  1 neighbor lists, perpetual/occasional/extra = 1 0 0
  (1) pair flare/kk, perpetual
      attributes: full, newton on, kokkos_device
      pair build: full/bin/kk/device
      stencil: full/bin/3d
      bin: kk/device
Per MPI rank memory allocation (min/avg/max) = 16.04 | 16.04 | 16.04 Mbytes
   Step          Temp          Press           CPU            Pxx            Pyy            Pzz            Pxy            Pxz            Pyz           KinEng         PotEng         TotEng         Volume           Lx             Ly             Lz          Atoms   
         0   3400           79264.947      0              79901.728      78805.53       79087.584      1130.3329     -219.77229     -813.23023      7048.8918     -2985.8921      4062.9997      167941.93      43.790145      43.790145      87.58029           16040 
      1000   3457.3673      300597.72      6.4488932      300316.3       300117.86      301359.01     -1483.1561      440.0434       158.22174      7167.8258      5166.4035      12334.229      156848.68      42.803928      42.803928      85.607855          16040 
      2000   3410.2896      298131.22      12.866552      296971.45      297405.26      300016.95     -466.13287      2594.607       482.61423      7070.2243      4958.597       12028.821      156742.31      42.79425       42.79425       85.5885            16040 
      3000   3361.924       299771.37      19.283102      298583.36      301572.94      299157.79     -567.15074     -1540.9725      1242.1644      6969.9525      5040.1323      12010.085      156664.21      42.787141      42.787141      85.574282          16040 
      4000   3438.5143      298892.92      25.702199      297710.71      299934.73      299033.32      188.15042     -4793.0202      2717.227       7128.7398      4982.8922      12111.632      156722.53      42.792449      42.792449      85.584899          16040 
      5000   3379.7731      301690.26      32.124715      300451.97      302655.69      301963.11      935.47845     -1560.6284     -217.59544      7006.9573      4952.9094      11959.867      156606.96      42.781928      42.781928      85.563857          16040 
      6000   3456.5197      298881.49      38.543952      298393.35      298872.08      299379.05      438.0207       4272.2561      593.89403      7166.0685      4940.7754      12106.844      156784.14      42.798056      42.798056      85.596113          16040 
      7000   3368.6052      301355.64      44.962244      302043.22      300753.96      301269.72      2942.1561     -24.440029      855.81315      6983.8041      4979.1623      11962.966      156525.34      42.774495      42.774495      85.54899           16040 
      8000   3388.1369      301247.45      51.381769      300219.1       302618.21      300905.04      57.468124     -17.267298     -1175.6995      7024.2972      5024.6352      12048.932      156610.91      42.782288      42.782288      85.564575          16040 
      9000   3376.392       301258.53      57.80197       302041.16      302174.61      299559.8       1489.05        1297.1859      1843.122       6999.9476      4984.0145      11983.962      156604.07      42.781665      42.781665      85.56333           16040 
     10000   3376.5502      294745.86      64.223179      293691.04      295114.32      295432.23     -599.33976     -1821.7411      1365.2449      7000.2755      4904.7498      11905.025      156887.49      42.807458      42.807458      85.614915          16040 
Loop time of 64.2232 on 8 procs for 10000 steps with 16040 atoms

Performance: 6.727 ns/day, 3.568 hours/ns, 155.707 timesteps/s
61.2% CPU use with 1 MPI tasks x 8 OpenMP threads

MPI task timing breakdown:
Section |  min time  |  avg time  |  max time  |%varavg| %total
---------------------------------------------------------------
Pair    | 61.252     | 61.252     | 61.252     |   0.0 | 95.37
Neigh   | 0.088422   | 0.088422   | 0.088422   |   0.0 |  0.14
Comm    | 0.35308    | 0.35308    | 0.35308    |   0.0 |  0.55
Output  | 0.011705   | 0.011705   | 0.011705   |   0.0 |  0.02
Modify  | 2.2683     | 2.2683     | 2.2683     |   0.0 |  3.53
Other   |            | 0.2502     |            |       |  0.39

Nlocal:          16040 ave       16040 max       16040 min
Histogram: 1 0 0 0 0 0 0 0 0 0
Nghost:          13688 ave       13688 max       13688 min
Histogram: 1 0 0 0 0 0 0 0 0 0
Neighs:              0 ave           0 max           0 min
Histogram: 1 0 0 0 0 0 0 0 0 0
FullNghs:  1.47702e+06 ave 1.47702e+06 max 1.47702e+06 min
Histogram: 1 0 0 0 0 0 0 0 0 0

Total # of neighbors = 1477018
Ave neighs/atom = 92.083416
Neighbor list builds = 287
Dangerous builds = 0
run  990000
Per MPI rank memory allocation (min/avg/max) = 16.11 | 16.11 | 16.11 Mbytes
   Step          Temp          Press           CPU            Pxx            Pyy            Pzz            Pxy            Pxz            Pyz           KinEng         PotEng         TotEng         Volume           Lx             Ly             Lz          Atoms   
     10000   3376.5502      294745.86      0              293691.04      295114.32      295432.23     -599.33976     -1821.7411      1365.2449      7000.2755      4904.7498      11905.025      156887.49      42.807458      42.807458      85.614915          16040 
     11000   3380.7299      294676.55      6.420329       294367.2       295782.31      293880.12     -311.99956      1348.754      -959.24222      7008.9409      4928.1246      11937.065      156910.49      42.80955       42.80955       85.619099          16040 
     12000   3369.4642      297439.18      12.842584      298224.65      296608.21      297484.67      111.84957      687.57209     -3468.372       6985.5848      4915.7012      11901.286      156715.92      42.791848      42.791848      85.583696          16040 
     13000   3417.8404      298700.65      19.263683      299421.65      299313.84      297366.47     -2905.4525      1272.212       1302.3914      7085.8786      4960.2953      12046.174      156659.55      42.786716      42.786716      85.573432          16040 
     14000   3397.1489      301535.22      25.687361      301153.35      301824.26      301628.04     -601.07378     -753.43886      1137.6539      7042.9809      4854.8139      11897.795      156454.76      42.768064      42.768064      85.536128          16040 
     15000   3446.6846      300483.01      32.107255      301152.51      299792.79      300503.72     -245.3421       1176.1815     -250.27303      7145.6785      4899.5055      12045.184      156566.44      42.778238      42.778238      85.556476          16040 
     16000   3393.1617      304384.15      38.527581      304506.53      305658.18      302987.75     -1493.1329      1579.397      -900.22955      7034.7145      4980.0768      12014.791      156367.71      42.760131      42.760131      85.520261          16040 
     17000   3384.4947      303120.71      44.94903       303339.06      303512.1       302510.96      282.24819     -629.56743     -100.33892      7016.7461      4993.1091      12009.855      156399.3       42.76301       42.76301       85.526021          16040 
     18000   3405.6977      302652.23      51.369545      302905.04      302690.82      302360.84     -228.74527      254.07204      2941.3526      7060.7042      4973.7078      12034.412      156407.26      42.763735      42.763735      85.527471          16040 
     19000   3398.2344      300312.31      57.790339      301108.66      300869.03      298959.23     -1183.8133     -1931.9643     -2600.9906      7045.2313      4922.5067      11967.738      156543.81      42.776177      42.776177      85.552353          16040 
     20000   3445.2387      302092.57      64.211067      302504.95      303261.1       300511.65     -732.85738      99.759805      1557.505       7142.6807      4899.2926      12041.973      156520.93      42.774093      42.774093      85.548186          16040 
     21000   3404.5781      298946.56      70.632067      297459.76      300182.54      299197.38      1260.718      -1444.9436      267.68912      7058.3831      4927.1937      11985.577      156678.05      42.788401      42.788401      85.576802          16040 
     22000   3391.9979      297422.6       77.054704      296375.21      297223.66      298668.93      2844.511       3016.43       -1769.068       7032.3019      4836.4323      11868.734      156704.84      42.790839      42.790839      85.581678          16040 
     23000   3373.5267      293393.19      83.476237      295081.59      290562.27      294535.7       611.81647     -1791.7832     -1769.2855      6994.0072      4891.0957      11885.103      156870.89      42.805948      42.805948      85.611896          16040 
     24000   3414.5642      297112.66      89.896676      297452.94      296913.78      296971.27      773.85558      131.76563      3068.0902      7079.0863      4881.6366      11960.723      156760.92      42.795943      42.795943      85.591886          16040 
     25000   3413.1705      297522.81      96.318554      296170.46      297506         298891.98      1312.8454     -455.48565     -2474.498       7076.1969      4833.851       11910.048      156670.43      42.787707      42.787707      85.575414          16040 
     26000   3401.0383      299949.75      102.74004      297785.98      300198.12      301865.15      3052.3285      733.41158     -298.34604      7051.0445      4942.1965      11993.241      156622.97      42.783386      42.783386      85.566772          16040 
     27000   3401.0522      298536.32      109.16038      298377.43      298251.42      298980.1      -175.2611      -2164.714      -292.78801      7051.0732      4935.0101      11986.083      156625.27      42.783595      42.783595      85.56719           16040 
     28000   3363.6862      299777.93      115.58165      299659.25      300659.69      299014.85      559.22051     -2152.1357      240.10284      6973.6058      4898.1457      11871.752      156515.87      42.773632      42.773632      85.547263          16040 
     29000   3393.1695      295272.99      121.9993       294443.65      295941.43      295433.9      -285.94083      36.367212      1183.283       7034.7307      4859.2324      11893.963      156820.23      42.80134       42.80134       85.602679          16040 
     30000   3380.3864      291286.21      128.4194       289933.03      292814.96      291110.65      1656.5921      1367.1895      1283.7833      7008.2289      4776.0985      11784.327      156912.2       42.809705      42.809705      85.619411          16040 
     31000   3394.008       295385.26      134.84011      297090.46      295033.43      294031.89      49.231568     -4497.8832      1476.5748      7036.4692      4900.333       11936.802      156837.55      42.802916      42.802916      85.605831          16040 
     32000   3400.4663      300879.81      141.2598       301470.02      301935.18      299234.22     -897.63897     -773.99336     -1235.7047      7049.8586      4813.5665      11863.425      156516.84      42.77372       42.77372       85.54744           16040 
     33000   3438.107       301099.42      147.67984      302171.67      300322.08      300804.5       1504.985      -1294.3772      994.03062      7127.8954      4886.6761      12014.572      156520.79      42.77408       42.77408       85.548161          16040 
     34000   3390.7881      302502.76      154.0994       302122.51      303620.13      301765.65     -627.58445      252.24251      223.03277      7029.7936      4891.6072      11921.401      156385.34      42.761738      42.761738      85.523476          16040 
     35000   3413.6097      300202.03      160.51836      301225.42      298552.99      300827.68      99.503048      1663.3807      535.16181      7077.1074      4980.6965      12057.804      156558.4       42.777506      42.777506      85.555012          16040 
     36000   3389.4589      298335.22      166.93973      298641.25      298019.93      298344.49     -3149.2713      1576.6135     -1365.2904      7027.0378      4922.17        11949.208      156658.56      42.786626      42.786626      85.573252          16040 
     37000   3406.4269      298673.33      173.35815      298648.18      298546.79      298825.01      1321.3649      2486.6153     -1008.3769      7062.216       4881.9929      11944.209      156634.94      42.784476      42.784476      85.568952          16040 
     38000   3381.0509      302866.23      179.77707      303923.51      303302.73      301372.44      966.01658     -584.33401     -1122.655       7009.6064      4878.7663      11888.373      156300.33      42.753988      42.753988      85.507977          16040 
     39000   3401.8692      303763.32      186.19874      302669.81      305871.17      302748.99      1344.2966     -1191.1142     -1634.5884      7052.7671      4914.5982      11967.365      156379.77      42.76123       42.76123       85.522461          16040 
     40000   3397.4026      302448.95      192.6188       302455.14      302530.4       302361.31     -860.28273     -1635.6318     -3241.9145      7043.5068      4816.4332      11859.94       156334.35      42.75709       42.75709       85.51418           16040 
     41000   3405.8284      300770.44      199.04102      301443.27      301553.51      299314.55     -2867.9832     -205.5759      -1920.3371      7060.9752      4806.7845      11867.76       156389.86      42.76215       42.76215       85.524299          16040 
     42000   3413.3214      300327.97      205.4628       299438.74      299949.51      301595.66      3251.4596     -2387.115       471.45337      7076.5097      4858.5159      11935.026      156525.65      42.774522      42.774522      85.549045          16040 
     43000   3353.3677      302584.37      211.88342      302229.86      303562.79      301960.45     -2060.5994     -71.260032      2191.3135      6952.2135      4844.7618      11796.975      156327.83      42.756496      42.756496      85.512991          16040 
     44000   3424.769       302398.12      218.30546      303131.07      302524.7       301538.59     -2225.5286      2576.5029     -60.652011      7100.243       4855.9212      11956.164      156416.72      42.764598      42.764598      85.529195          16040 
     45000   3377.9758      302279.5       224.72612      303711.52      301605.47      301521.51     -1179.1062      2366.8493     -1531.5631      7003.2311      4814.1396      11817.371      156348.77      42.758404      42.758404      85.516808          16040 
     46000   3390.9476      299232.86      231.14723      298123.14      299703.46      299871.98      1433.832       933.83509     -614.37334      7030.1244      4819.3519      11849.476      156574.5       42.778972      42.778972      85.557944          16040 
     47000   3421.0526      296428.36      237.57129      296821.33      298471.2       293992.54      91.315386      2533.1443      2008.6015      7092.538       4743.0488      11835.587      156736.45      42.793716      42.793716      85.587433          16040 
     48000   3378.4637      296105.6       243.99111      296925.78      295140.92      296250.11      297.80162      1241.1052     -171.39946      7004.2427      4858.5171      11862.76       156715.84      42.791841      42.791841      85.583682          16040 
     49000   3383.7246      299497.84      250.41233      300385.41      298259.05      299849.05     -1137.2311      256.12778     -246.42082      7015.1495      4773.822       11788.972      156492.1       42.771466      42.771466      85.542932          16040 
     50000   3377.335       299015.82      256.8331       299561.23      298128.77      299357.46      325.99049      35.684242      1358.3934      7001.9026      4875.7609      11877.663      156554.53      42.777154      42.777154      85.554308          16040 
     51000   3428.7265      301006.64      263.25432      300162.63      301376.96      301480.35     -385.15417     -619.86006      212.09342      7108.4477      4760.7997      11869.247      156425.1       42.765362      42.765362      85.530724          16040 
     52000   3414.0091      301031.59      269.67612      303016.18      300104.98      299973.61     -1795.3273     -103.56037      745.21659      7077.9355      4827.244       11905.179      156380.56      42.761302      42.761302      85.522604          16040 
     53000   3395.0589      303502.74      276.09837      303127.76      303210.04      304170.41      2006.3223      2923.5219      23.910527      7038.6479      4896.8609      11935.509      156268.71      42.751105      42.751105      85.502209          16040 
     54000   3422.7165      299608.3       282.51967      299132.19      299695.77      299996.94     -665.45567      1128.2966     -1325.1998      7095.9876      4827.0676      11923.055      156474.62      42.769874      42.769874      85.539748          16040 
     55000   3391.9854      296048.51      288.94117      297800.55      296007.84      294337.14     -2031.8287     -464.9794       2613.9393      7032.2758      4815.5692      11847.845      156778.77      42.797568      42.797568      85.595136          16040 
     56000   3406.8945      294803.85      295.36044      295232.59      293878.98      295299.98     -1837.6222      399.04115      894.41899      7063.1855      4799.0227      11862.208      156876.75      42.806481      42.806481      85.612962          16040 
     57000   3386.2253      299041.2       301.78028      300370.28      298634.72      298118.58      159.81574     -18.865218      3624.2878      7020.3339      4824.3361      11844.67       156618.96      42.783021      42.783021      85.566042          16040 
     58000   3367.4111      300025.15      308.20156      300324.83      300654.42      299096.21     -978.4328       2176.7989      3505.6072      6981.3283      4786.5773      11767.906      156456.71      42.768242      42.768242      85.536485          16040 
     59000   3391.2214      302824.5       314.62343      303865.24      303464.91      301143.35      324.33299      9.7985291      1689.6769      7030.692       4889.5865      11920.278      156327.94      42.756506      42.756506      85.513011          16040 
     60000   3389.3184      302071.97      321.04418      303194.82      301310.92      301710.18      276.24833      784.17603     -3698.2478      7026.7467      4860.9672      11887.714      156300.04      42.753961      42.753961      85.507923          16040 
     61000   3414.2355      301618.27      327.46788      303087.24      301309.39      300458.17     -2766.7168     -50.106952      1323.7912      7078.4049      4878.6032      11957.008      156469.91      42.769445      42.769445      85.538889          16040 
     62000   3375.7353      300768.33      333.89079      300677.89      299799.13      301827.96      2548.9042     -2622.7944     -527.79165      6998.5861      4793.4413      11792.027      156387.01      42.76189       42.76189       85.52378           16040 
     63000   3386.3704      300702.59      340.31414      301691.12      300128.51      300288.13     -466.45003     -597.74118      518.97786      7020.6348      4858.1496      11878.784      156476.16      42.770015      42.770015      85.540029          16040 
     64000   3396.1672      302724.4       346.73774      305088.24      301821.65      301263.3       908.69406      2270.4211     -1929.0808      7040.9457      4832.9263      11873.872      156395.57      42.76267       42.76267       85.52534           16040 
     65000   3400.2883      305432.66      353.16112      304916.78      306221.07      305160.14      773.5342       2905.9903     -1447.9078      7049.4894      4936.0685      11985.558      156228.31      42.747421      42.747421      85.494842          16040 
     66000   3416.3565      302442.25      359.58468      303406.73      302720.72      301199.31     -1345.2128      1406.2911      856.31208      7082.8021      4801.4934      11884.295      156401.2       42.763184      42.763184      85.526368          16040 
     67000   3417.3778      297705.78      366.0075       296507.3       298034.66      298575.39     -1657.8201     -468.39449      1653.9542      7084.9194      4825.9234      11910.843      156669.91      42.78766       42.78766       85.57532           16040 
     68000   3381.9264      298300.95      372.43141      298889.56      297794.91      298218.38     -658.92534     -505.12006      372.83885      7011.4216      4823.8564      11835.278      156476.53      42.770048      42.770048      85.540095          16040 
     69000   3415.0328      297625.84      378.85467      297668.51      296012.05      299196.95     -3034.2071     -1029.4874      451.8762       7080.0578      4850.4733      11930.531      156601.97      42.781474      42.781474      85.562948          16040 
     70000   3374.9642      298558.56      385.27721      297546.34      298915.63      299213.71     -74.763981     -895.9297       1920.8999      6996.9874      4822.3882      11819.376      156481.68      42.770517      42.770517      85.541035          16040 
     71000   3443.1112      297225.43      391.70019      298503.94      296305.51      296866.84     -546.69908     -354.56476      210.22833      7138.27        4791.4113      11929.681      156772.69      42.797014      42.797014      85.594029          16040 
     72000   3390.8926      295578.55      398.12249      295354.9       295721.85      295658.91     -1995.4137     -1297.0592     -792.10536      7030.0104      4852.7332      11882.744      156698.69      42.790279      42.790279      85.580558          16040 
     73000   3417.9228      299641.54      404.54314      298854.24      300875.84      299194.54     -1053.5476      924.78815      759.70265      7086.0494      4792.7425      11878.792      156555.96      42.777283      42.777283      85.554567          16040 
     74000   3442.7255      299983.8       410.96597      301240.69      300867.41      297843.31      565.54032      882.30631     -811.19457      7137.4704      4857.7884      11995.259      156511.29      42.773215      42.773215      85.546429          16040 
     75000   3444.499       302188.28      417.38709      300903.96      303019.83      302641.04     -426.83556     -1732.109      -553.89424      7141.1472      4792.0494      11933.197      156357.19      42.759172      42.759172      85.518344          16040 
     76000   3431.3123      301544.22      423.80841      300358.86      302822.19      301451.62      193.11409     -1588.1244     -2256.2544      7113.8085      4852.2865      11966.095      156360.44      42.759469      42.759469      85.518937          16040 
     77000   3375.7312      300056.07      430.22842      299643.69      300324.95      300199.59      1553.2024     -463.48642      15.078471      6998.5775      4703.2072      11701.785      156387.74      42.761956      42.761956      85.523913          16040 
     78000   3405.349       296298.11      436.65019      297168.63      296055.72      295669.99     -246.34008      1528.0755      2123.8591      7059.9813      4807.5542      11867.536      156733.73      42.793469      42.793469      85.586938          16040 
     79000   3357.0778      294679.22      443.06984      293991.64      296613.49      293432.54      1115.6614     -1184.3437      1366.7223      6959.9053      4699.5775      11659.483      156781.84      42.797847      42.797847      85.595694          16040 
     80000   3419.896       298325.73      449.49107      299320.41      296666.21      298990.58      1001.7411     -152.04367     -1313.1417      7090.1402      4712.6026      11802.743      156621.57      42.783259      42.783259      85.566518          16040 
     81000   3410.2464      298326.41      455.912        298384.81      297631.34      298963.1      -1960.8765     -1067.9256      1043.0483      7070.1347      4864.7007      11934.835      156667.37      42.787428      42.787428      85.574857          16040 
     82000   3388.3112      301236.7       462.33395      302085.96      300860.78      300763.35      2088.8842     -1321.2394     -209.20441      7024.6585      4775.4095      11800.068      156373.29      42.760639      42.760639      85.521278          16040 
     83000   3416.1488      303635.35      468.7556       303263.16      303676.15      303966.75      585.01785      558.79699      876.56812      7082.3716      4856.0274      11938.399      156324.2       42.756165      42.756165      85.512329          16040 
     84000   3389.845       308833         475.17738      309736.26      308716.7       308046.03     -101.11212      1228.1943     -455.10692      7027.8385      4817.2433      11845.082      155993.73      42.726014      42.726014      85.452029          16040 
     85000   3404.7234      303520.56      481.59925      303687.15      304071.76      302802.76      1659.1635      2873.7106     -395.58207      7058.6844      4873.9967      11932.681      156259.29      42.750246      42.750246      85.500492          16040 
     86000   3402.7479      302088.17      488.02232      300182.17      304118.84      301963.51      630.92062     -2977.7085      1693.7463      7054.5888      4877.9329      11932.522      156384.88      42.761696      42.761696      85.523393          16040 
     87000   3405.9974      299471.89      494.445        301105.99      299279.48      298030.2       608.19634     -313.46133     -242.21322      7061.3256      4633.4254      11694.751      156524.9       42.774454      42.774454      85.548908          16040 
     88000   3424.1927      296315.81      500.86792      296559.11      295364.17      297024.17      55.746955     -1844.198       1419.317       7099.0481      4724.4158      11823.464      156701.29      42.790516      42.790516      85.581033          16040 
     89000   3397.5327      295885.91      507.29241      296485.8       296054.61      295117.31     -1540.6199      522.53832     -608.9889       7043.7766      4867.2243      11911.001      156668.13      42.787497      42.787497      85.574995          16040 
     90000   3401.0403      299163.99      513.71408      298288.23      301319.56      297884.19      1066.4608     -220.17878      1983.1686      7051.0484      4775.3566      11826.405      156442.65      42.766961      42.766961      85.533923          16040 
     91000   3389.0937      301492.9       520.13731      301755.84      302089.13      300633.75      668.74898     -903.51882     -23.106745      7026.2808      4867.6989      11893.98       156414.61      42.764406      42.764406      85.528812          16040 
     92000   3368.0576      300865.61      526.55978      302790.62      299013.88      300792.33      1173.5815      1560.1702     -2202.8789      6982.6686      4792.0667      11774.735      156462.52      42.768771      42.768771      85.537542          16040 
     93000   3398.6926      296844.63      532.98059      297656.67      296825.17      296052.06     -364.63625      3105.4121      588.06023      7046.1812      4787.8319      11834.013      156681.52      42.788716      42.788716      85.577433          16040 
     94000   3360.329       300485.16      539.40282      301726.05      298839.46      300889.99     -490.34848     -1870.1726      1359.223       6966.6458      4856.4257      11823.071      156430.4       42.765845      42.765845      85.531689          16040 
     95000   3401.3255      302722.18      545.82455      303362.97      303913.57      300890.01      2719.439       1389.1295     -1441.239       7051.6398      4889.9223      11941.562      156420.87      42.764976      42.764976      85.529952          16040 
     96000   3394.0113      303670.87      552.24679      303380.84      303619.8       304011.98      933.08953     -2025.994       2651.1141      7036.476       4782.7743      11819.25       156351.24      42.75863       42.75863       85.517259          16040 
     97000   3449.1711      297791.92      558.66882      299034.2       297022.16      297319.4       237.00242      2239.0069      1418.7335      7150.8334      4769.2999      11920.133      156784.86      42.798122      42.798122      85.596244          16040 
     98000   3417.8098      298287.35      565.08927      298629.47      298092.31      298140.28     -1984.2312     -1647.6464     -2740.2235      7085.8151      4804.7689      11890.584      156673.96      42.788029      42.788029      85.576057          16040 
     99000   3394.8064      298620.86      571.51023      299560.11      297685.4       298617.07     -2967.4382      419.74464      931.18882      7038.1243      4676.6274      11714.752      156505.59      42.772695      42.772695      85.54539           16040 
    100000   3406.5873      297705.78      577.93747      297568.3       296115.91      299433.13      502.52301     -1125.071      -441.92262      7062.5487      4825.6436      11888.192      156657.81      42.786558      42.786558      85.573117          16040 
    101000   3417.8208      297426.69      584.3573       297687.78      296917.33      297674.96     -370.26225     -763.52559     -620.12735      7085.8379      4905.7375      11991.575      156671.47      42.787802      42.787802      85.575603          16040 
    102000   3427.8165      297801.21      590.77814      296218.84      297379.54      299805.25     -121.08343     -1459.0611      1772.2924      7106.5611      4731.0083      11837.569      156510.55      42.773147      42.773147      85.546295          16040 
    103000   3401.6915      302032.37      597.2007       300802.15      303139.42      302155.54     -1227.7688      309.02245      195.77653      7052.3986      4833.8794      11886.278      156301.39      42.754085      42.754085      85.50817           16040 
    104000   3378.308       305412.27      603.6239       306084.63      305071         305081.18     -2017.0139      517.5982      -2369.6796      7003.9198      4905.8446      11909.764      156152.43      42.740498      42.740498      85.480997          16040 
    105000   3395.7294      302989.54      610.04459      303095.35      302314.87      303558.4      -1485.7601     -1111.4257      187.58829      7040.0379      4819.578       11859.616      156378.25      42.761092      42.761092      85.522183          16040 
    106000   3441.2146      298806.2       616.46879      299000.3       299625.7       297792.59      543.70844      1060.549      -1920.9225      7134.338       4859.1896      11993.528      156588.64      42.78026       42.78026       85.56052           16040 
    107000   3401.2823      299452.04      622.89167      300601.26      300187.28      297567.6       24.665626      120.53561      3921.4803      7051.5502      4805.6048      11857.155      156512.91      42.773362      42.773362      85.546725          16040 
    108000   3415.2441      300669.2       629.3157       302479.13      298903.67      300624.8      -1082.3479     -295.81779     -1440.8189      7080.4958      4788.4752      11868.971      156419.84      42.764882      42.764882      85.529765          16040 
    109000   3403.0914      299123.42      635.73909      298454.45      299490.08      299425.72      2929.1898     -870.17825      760.95511      7055.3008      4770.2289      11825.53       156490.55      42.771325      42.771325      85.542651          16040 
    110000   3421.9383      302305.12      642.16331      300999.52      303730         302185.83      966.5505      -1054.4309     -114.16113      7094.3744      4799.3021      11893.677      156338.5       42.757469      42.757469      85.514937          16040 
    111000   3365.857       305180.08      648.58635      306302.93      304034.4       305202.92     -3231.727      -2312.7462      2977.6676      6978.1064      4826.3482      11804.455      156040.65      42.730298      42.730298      85.460596          16040 
    112000   3417.0257      303680.8       655.01061      302891.47      303232.63      304918.3      -1141.8789     -2828.1284     -1660.2409      7084.1896      4845.5972      11929.787      156286.07      42.752688      42.752688      85.505376          16040 
    113000   3427.6219      301057.4       661.43488      300014.71      301411.19      301746.3       1818.96        145.27681     -720.67036      7106.1575      4817.6196      11923.777      156456.73      42.768244      42.768244      85.536488          16040 
    114000   3408.6285      299696.91      667.85928      299992.7       299855.12      299242.9      -895.73391     -454.57649      1284.6445      7066.7804      4749.7563      11816.537      156471.57      42.769596      42.769596      85.539191          16040 
    115000   3410.5182      299526.59      674.28254      298808.86      299464.66      300306.24      1245.3013      557.28432     -1664.8161      7070.6981      4781.9954      11852.693      156484.38      42.770763      42.770763      85.541526          16040 
    116000   3382.9979      299133.13      680.70819      297288.94      299445.76      300664.7       2026.5101      851.72462     -1464.65        7013.6431      4845.7667      11859.41       156419.75      42.764874      42.764874      85.529748          16040 
    117000   3394.5097      299821.13      687.13244      299476.56      300189.39      299797.44     -113.07942     -2400.2356      208.90346      7037.5093      4726.2452      11763.754      156373         42.760613      42.760613      85.521227          16040 
    118000   3412.2333      297416.21      693.55576      297095.17      297735.62      297417.83     -1606.3011      1619.0471      971.92729      7074.2538      4786.8484      11861.102      156617.4       42.782879      42.782879      85.565757          16040 
    119000   3357.142       297257.35      699.97941      298182.48      296301.81      297287.76     -1198.1997     -774.78071     -3745.3487      6960.0384      4749.1372      11709.176      156539.76      42.775808      42.775808      85.551615          16040 
    120000   3409.7549      295050.22      706.40101      293698.9       296608.19      294843.58      888.52435     -354.68072      438.82558      7069.1157      4756.9964      11826.112      156791.97      42.798769      42.798769      85.597537          16040 
    121000   3375.2794      297274.89      712.82293      297416.05      296118.66      298289.97      926.72941     -1002.9341     -2180.6042      6997.641       4666.1465      11663.788      156584.89      42.779919      42.779919      85.559838          16040 
    122000   3398.0436      298177.55      719.24647      299453.71      298284.98      296793.95     -2192.602       1830.2422      1183.4555      7044.8357      4725.1173      11769.953      156497.17      42.771928      42.771928      85.543856          16040 
    123000   3403.936       304629.15      725.66908      303228.56      304382.16      306276.73     -3220.4431     -328.09768      2490.2824      7057.0519      4887.0093      11944.061      156255.15      42.749869      42.749869      85.499737          16040 
    124000   3415.1374      303576.14      732.09252      305359.73      301560.12      303808.56      2126.1816      422.51429     -3551.2195      7080.2747      4729.4169      11809.692      156212.01      42.745934      42.745934      85.491868          16040 
    125000   3405.8842      302635.07      738.51361      302069.29      303279.16      302556.75      879.02949      3769.8269      1791.613       7061.0908      4827.587       11888.678      156315.32      42.755355      42.755355      85.51071           16040 
    126000   3404.1012      301916.62      744.93585      302187.64      301586.05      301976.17     -885.29529     -703.83354     -490.34743      7057.3944      4757.2422      11814.637      156264.12      42.750686      42.750686      85.501373          16040 
    127000   3418.5816      300867.78      751.36037      299226.68      302607.26      300769.39      1215.8328      3423.2057      1265.9247      7087.4152      4828.6853      11916.1        156412.83      42.764244      42.764244      85.528488          16040 
    128000   3405.48        299292.41      757.78266      300358.06      298982.93      298536.23     -1646.5575      3841.1812     -139.23797      7060.2528      4731.1851      11791.438      156571.14      42.778666      42.778666      85.557333          16040 
    129000   3418.9914      300307.28      764.20423      298663.23      301328.91      300929.69     -324.16042      2557.3348      2676.7681      7088.2648      4783.8113      11872.076      156461.93      42.768718      42.768718      85.537435          16040 
    130000   3418.4559      300909.37      770.6287       300389.29      302310.09      300028.74     -1029.9769      1226.1915      2120.6008      7087.1546      4716.8465      11804.001      156440.6       42.766774      42.766774      85.533548          16040 
    131000   3390.2507      299390.07      777.05363      299266.33      298865.51      300038.36      453.95593     -142.19969      426.87206      7028.6796      4750.4167      11779.096      156518.38      42.773861      42.773861      85.547722          16040 
    132000   3401.4924      289844.75      783.47719      290268.32      288094.61      291171.32      4210.4824      129.2697      -1057.7008      7051.9859      4743.4511      11795.437      157099.6       42.826741      42.826741      85.653481          16040 
    133000   3400.5439      295448.74      789.89946      295484.58      296018.44      294843.2      -1255.9436      58.919299      1086.5938      7050.0193      4709.7377      11759.757      156712.71      42.791555      42.791555      85.583111          16040 
    134000   3423.0685      297662.05      796.32229      298951.36      295734.76      298300.01      1778.0633     -530.77348      1514.7373      7096.7174      4790.2689      11886.986      156625.7       42.783635      42.783635      85.56727           16040 
    135000   3409.2021      297561.47      802.74718      298196.65      299049.54      295438.23     -2323.7355      1266.4682      1181.937       7067.9696      4734.4837      11802.453      156646.22      42.785503      42.785503      85.571005          16040 
    136000   3398.5134      299483.64      809.17183      299035.85      299069.2       300345.87      81.841177      698.68422     -1638.6285      7045.8097      4742.4133      11788.223      156527.85      42.774723      42.774723      85.549447          16040 
    137000   3423.8088      304185.22      815.59313      303998.94      302926.02      305630.7       152.39202      2862.2156     -775.64813      7098.2523      4740.7892      11839.041      156230.38      42.747609      42.747609      85.495219          16040 
    138000   3438.84        306118.19      822.01764      307697.46      305218.73      305438.38     -1619.9034     -1091.0317     -2317.7989      7129.4149      4795.0274      11924.442      156187.9       42.743734      42.743734      85.487469          16040 
    139000   3407.8657      303116.65      828.43869      303146.29      303380.33      302823.32      1783.1376     -836.68408     -2741.1917      7065.1989      4700.359       11765.558      156310.62      42.754926      42.754926      85.509852          16040 
    140000   3416.7091      299714.27      834.86019      299535.97      299789.88      299816.95      649.97983      294.02683     -849.8002       7083.5332      4755.9889      11839.522      156499.74      42.772163      42.772163      85.544326          16040 
    141000   3426.6203      299328.68      841.2844       297360.39      300060.98      300564.67     -2338.9584     -2795.02        3275.5193      7104.0812      4812.6212      11916.702      156533.98      42.775282      42.775282      85.550563          16040 
    142000   3399.7341      299938.77      847.70902      302008.64      299861.76      297945.93      2761.1755      351.74105     -1210.6112      7048.3405      4733.3459      11781.686      156456.38      42.768212      42.768212      85.536424          16040 
    143000   3393.8332      296830.23      854.13161      296282.65      298550.83      295657.21     -3184.4819      1340.1552     -73.20671       7036.1068      4769.356       11805.463      156635.98      42.78457       42.78457       85.569141          16040 
    144000   3363.7536      298109.07      860.55437      297282.78      299462.83      297581.61     -2719.8581     -1287.368       36.796484      6973.7457      4813.046       11786.792      156503.02      42.772461      42.772461      85.544923          16040 
    145000   3417.8649      299262.67      866.9781       298588.91      300385.26      298813.85      2828.6673      606.79089     -1358.6874      7085.9293      4815.0332      11900.963      156561.24      42.777765      42.777765      85.555529          16040 
    146000   3426.5449      300111.09      873.40232      300566.87      298635.96      301130.44      1672.4072      1659.0578      2949.2762      7103.9248      4711.6604      11815.585      156405.36      42.763562      42.763562      85.527125          16040 
    147000   3396.4147      299636.9       879.82544      298429.53      301392.05      299089.13      198.36476     -2017.9462     -2208.22        7041.4588      4824.0469      11865.506      156467.81      42.769254      42.769254      85.538507          16040 
    148000   3380.2467      301674.31      886.24846      301857.82      301366.28      301798.84      879.91682     -741.35278     -1017.844       7007.9392      4775.0124      11782.952      156407.58      42.763765      42.763765      85.52753           16040 
    149000   3407.7941      296896.59      892.67072      297569.28      296052.12      297068.36     -140.88579     -1242.6766      1109.1487      7065.0505      4770.7046      11835.755      156652.29      42.786055      42.786055      85.572111          16040 
    150000   3382.2749      297420.34      899.09203      296261.62      298588.19      297411.23     -637.9418      -1952.7573     -2214.189       7012.144       4684.3589      11696.503      156632         42.784208      42.784208      85.568417          16040 
    151000   3389.3563      300395.35      905.51274      299459.23      301814.75      299912.09     -1209.3345      4192.0651     -6.7185347      7026.8252      4775.9307      11802.756      156436.26      42.766378      42.766378      85.532757          16040 
    152000   3386.7125      303109.88      911.93474      304503.62      300252.1       304573.92     -3033.1322     -236.72915     -614.57841      7021.3441      4697.8593      11719.203      156175.33      42.742588      42.742588      85.485176          16040 
    153000   3385.8573      300608.18      918.35946      300998.37      301815.48      299010.69     -828.29773      2747.0174      1268.0382      7019.571       4787.9976      11807.569      156397.03      42.762803      42.762803      85.525606          16040 
    154000   3409.3495      299473.35      924.78219      300683.99      299628.82      298107.25     -682.67945      298.56995      91.099244      7068.2752      4795.3673      11863.642      156547.62      42.776524      42.776524      85.553049          16040 
    155000   3403.5894      299598.78      931.20438      300510.55      297823.37      300462.44      3670.5695      536.69597     -1400.5196      7056.3333      4715.8047      11772.138      156450.17      42.767646      42.767646      85.535293          16040 
    156000   3392.6185      300131.34      937.62962      301329.02      301504.48      297560.51      827.25492      1489.8796      40.425723      7033.5885      4707.7276      11741.316      156444.32      42.767113      42.767113      85.534225          16040 
    157000   3401.84        300997.55      944.05426      300689.19      302256.46      300047.02      481.32728      3442.9913      2520.6957      7052.7065      4759.5882      11812.295      156440.61      42.766775      42.766775      85.53355           16040 
    158000   3384.3898      298675.39      950.47786      297758.26      298972.81      299295.1      -2513.2739     -1527.5185     -4789.8658      7016.5286      4655.3996      11671.928      156476.16      42.770015      42.770015      85.540029          16040 
    159000   3379.5395      297155.31      956.89953      296460.21      298235.04      296770.67      458.48078      367.48828     -742.13319      7006.473       4796.8292      11803.302      156609.35      42.782146      42.782146      85.564292          16040 
    160000   3381.4682      298543.48      963.32487      298205.6       299040.55      298384.27      1662.8478      798.00106     -2656.2237      7010.4715      4681.5166      11691.988      156494.38      42.771674      42.771674      85.543348          16040 
    161000   3399.1928      301423.55      969.74849      302123.94      301405.03      300741.66      2173.3625     -1184.5067      884.41504      7047.2183      4798.606       11845.824      156354.58      42.758934      42.758934      85.517868          16040 
    162000   3411.6829      303628.88      976.17331      303698.88      305321.8       301865.98      1294.5334      1611.6334      19.518313      7073.1128      4713.9398      11787.053      156192.52      42.744156      42.744156      85.488313          16040 
    163000   3418.9616      299598.5       982.59655      300816         299139.72      298839.77     -2466.1647     -1620.3811     -194.39309      7088.203       4782.4767      11870.68       156441.35      42.766842      42.766842      85.533685          16040 
    164000   3399.2593      301134.12      989.01878      299580.56      303846.29      299975.5       296.20548     -231.98473      1575.5179      7047.3561      4704.025       11751.381      156396.62      42.762766      42.762766      85.525533          16040 
    165000   3420.7486      298443.45      995.44161      297472.19      300595.53      297262.63      518.23889     -1196.9682     -2323.8526      7091.9079      4785.9652      11877.873      156615.09      42.782668      42.782668      85.565337          16040 
    166000   3381.4903      291903.17      1001.8672      292629.81      290408.28      292671.41      1967.0418      1755.1031     -1003.685       7010.5174      4618.0034      11628.521      156863.11      42.805241      42.805241      85.610482          16040 
    167000   3376.7312      297138.82      1008.2891      294361.01      298718.32      298337.15      885.95308     -820.23738      614.91322      7000.6509      4709.5936      11710.244      156600.89      42.781376      42.781376      85.562752          16040 
    168000   3424.5225      299832.39      1014.7126      299240.44      300312.29      299944.43      2945.7506     -63.151417      2943.0295      7099.7319      4817.3686      11917.1        156516.28      42.773669      42.773669      85.547339          16040 
    169000   3408.2588      302813.13      1021.1374      303170.85      303257.7       302010.83     -2419.3544      1469.6264     -719.41961      7066.014       4756.3117      11822.326      156356.61      42.759119      42.759119      85.518238          16040 
    170000   3414.7645      299969.88      1027.5559      298837.59      301516.38      299555.66     -2202.0821      995.61999     -2064.0748      7079.5015      4727.9028      11807.404      156477.79      42.770163      42.770163      85.540326          16040 
    171000   3369.5499      300199.67      1033.9779      299613.68      300566.14      300419.19      334.10324     -2072.8929     -665.46255      6985.7626      4713.4164      11699.179      156415.45      42.764483      42.764483      85.528965          16040 
    172000   3419.39        295321.38      1040.4005      294563.96      294808.59      296591.58     -3300.5345     -1885.0651     -1848.3309      7089.0912      4706.8097      11795.901      156695.12      42.789955      42.789955      85.57991           16040 
    173000   3412.2805      296175.43      1046.823       296083.63      294769.53      297673.14     -497.0139      -230.4266       1652.4625      7074.3517      4669.3603      11743.712      156613.85      42.782556      42.782556      85.565111          16040 
    174000   3374.1129      300351.46      1053.2449      301264.01      299333.55      300456.82     -1023.0425      1732.1715     -3024.8116      6995.2226      4793.535       11788.758      156414.39      42.764386      42.764386      85.528771          16040 
    175000   3417.8914      301619.08      1059.6677      302008.54      302997.19      299851.5       2792.7213     -3273.4097      1383.3219      7085.9843      4762.1809      11848.165      156343.42      42.757917      42.757917      85.515833          16040 
    176000   3412.6609      304490.91      1066.0889      304536.39      305019.46      303916.89      800.76693      2048.6991      961.51964      7075.1404      4771.1896      11846.33       156243.45      42.748801      42.748801      85.497602          16040 
    177000   3420.9199      303098.1       1072.5085      304907.15      302518.94      301868.21      855.46612     -694.48088     -158.30289      7092.263       4798.9008      11891.164      156315.42      42.755364      42.755364      85.510728          16040 
    178000   3404.6035      301413.12      1078.9302      300325.75      302647.43      301266.18      66.989573     -817.13535      540.42298      7058.4357      4743.6186      11802.054      156334.84      42.757134      42.757134      85.514269          16040 
    179000   3383.707       295970.87      1085.3509      296731.77      295254.81      295926.02      922.29403     -637.82533      448.9853       7015.113       4734.0682      11749.181      156718.82      42.792111      42.792111      85.584223          16040 
    180000   3431.4086      293985.55      1091.7718      294099.34      293227.92      294629.39      3585.7783     -11.618649      1932.6546      7114.0081      4749.2341      11863.242      156898.77      42.808484      42.808484      85.616968          16040 
    181000   3365.4406      297155.92      1098.1915      297961.3       297277.56      296228.91     -280.89686      2762.348       508.15599      6977.2431      4702.6394      11679.882      156567.12      42.7783        42.7783        85.556601          16040 
    182000   3418.6922      298577.09      1104.6114      298573.89      300183.85      296973.54      879.46738     -447.55988     -1142.3196      7087.6446      4754.8725      11842.517      156639.75      42.784914      42.784914      85.569828          16040 
    183000   3400.9347      302432.16      1111.0341      302378.79      302020.51      302897.18      2172.4032      1783.3509     -2469.7007      7050.8297      4753.5239      11804.354      156336.27      42.757265      42.757265      85.51453           16040 
    184000   3391.6384      304372.88      1117.4566      305058.59      304055.13      304004.91     -921.14339     -564.16938     -331.32684      7031.5565      4763.118       11794.674      156200.18      42.744855      42.744855      85.48971           16040 
    185000   3421.1501      304154.88      1123.8804      303273.44      303384.23      305806.97      3002.9225      3022.5532     -792.87542      7092.7402      4789.2892      11882.029      156188.74      42.743811      42.743811      85.487622          16040 
    186000   3394.5066      303999.44      1130.3042      303712.86      303366         304919.47     -3009.234      -657.15443     -990.45457      7037.5029      4715.0166      11752.519      156132.9       42.738717      42.738717      85.477434          16040 
    187000   3418.4772      299839.72      1136.7268      300091.02      298344.13      301084.03      1733.4344     -2050.1419     -1392.6289      7087.1988      4757.343       11844.542      156448.28      42.767474      42.767474      85.534948          16040 
    188000   3431.1951      299390.13      1143.1517      300422.56      297973.9       299773.93      233.12382      2010.6489     -28.817393      7113.5657      4700.0312      11813.597      156454.2       42.768013      42.768013      85.536026          16040 
    189000   3404.4341      299250.34      1149.575       300282.69      297998.17      299470.15      170.51166     -1249.7463      1621.4926      7058.0845      4701.1263      11759.211      156368.01      42.760158      42.760158      85.520316          16040 
    190000   3378.3481      303631.01      1155.9992      302986.9       303712.13      304193.99     -1554.841       2101.7221      110.39393      7004.0031      4880.1328      11884.136      156205.16      42.745309      42.745309      85.490617          16040 
    191000   3391.7955      305131.35      1162.4235      305554.75      303602.04      306237.24     -2349.1808     -1927.9928      460.98761      7031.8821      4920.7212      11952.603      156177.93      42.742825      42.742825      85.485649          16040 
    192000   3417.1799      301152.79      1168.8468      300736.52      300522.41      302199.46     -1249.5837     -1650.8961      1919.2215      7084.5093      4783.5874      11868.097      156411.18      42.764093      42.764093      85.528186          16040 
    193000   3383.2619      301094.89      1175.2685      301502.01      300404.01      301378.65      599.54085      619.9545      -1541.1844      7014.1904      4694.348       11708.538      156420.42      42.764935      42.764935      85.52987           16040 
    194000   3401.0537      296515.44      1181.6921      295037.67      296241.2       298267.44      1077.609      -1824.2629      711.14188      7051.0763      4759.412       11810.488      156660.47      42.7868        42.7868        85.5736            16040 
    195000   3399.5616      298900.96      1188.1136      298938.58      298922.15      298842.13      312.75228      1614.7091      483.05581      7047.9828      4703.7191      11751.702      156499.45      42.772136      42.772136      85.544272          16040 
    196000   3403.3334      300399.86      1194.5355      297891.29      301111.51      302196.79     -814.99321     -2230.9942      3373.222       7055.8027      4758.7779      11814.581      156460.08      42.768549      42.768549      85.537097          16040 
    197000   3397.8126      304738.53      1200.9582      304845.73      305793.6       303576.27      1539.6958      1952.5046      2733.0823      7044.3568      4768.0834      11812.44       156253.24      42.749694      42.749694      85.499389          16040 
    198000   3420.6108      301582.38      1207.38        300656.07      302614.26      301476.81     -1298.8757     -2829.9429     -2398.8323      7091.6221      4810.1248      11901.747      156380.1       42.761261      42.761261      85.522521          16040 
    199000   3405.2427      303094.63      1213.8012      302150.72      302775.49      304357.68     -448.18294      2687.3558      2159.8963      7059.761       4718.7008      11778.462      156228.44      42.747432      42.747432      85.494864          16040 
    200000   3405.3867      297598.55      1220.2278      296306.06      298248.02      298241.56     -1200.661       109.92713      993.10488      7060.0595      4711.9169      11771.976      156612.41      42.782425      42.782425      85.56485           16040 
    201000   3381.8649      298254.98      1226.6495      297984.92      297697.4       299082.61      609.25409      32.139298     -804.76397      7011.2939      4742.879       11754.173      156539.36      42.775772      42.775772      85.551544          16040 
    202000   3419.5635      299514.32      1233.0721      298617.67      300343.27      299582.03      3149.2302     -437.2516      -1234.5438      7089.4509      4615.3728      11704.824      156414.3       42.764377      42.764377      85.528755          16040 
    203000   3388.6771      301117.51      1239.4956      301367.9       298886.79      303097.85      473.00803      304.9378      -1123.2863      7025.4172      4675.9224      11701.34       156263.96      42.750672      42.750672      85.501343          16040 
    204000   3403.3944      302925.85      1245.9183      303868.77      302505         302403.77     -1072.4796      2004.4384     -1819.9857      7055.929       4800.7039      11856.633      156312.04      42.755056      42.755056      85.510112          16040 
    205000   3442.1877      301820.15      1252.3424      301578.62      300630.02      303251.82     -1425.5074     -562.23159      1173.8824      7136.3556      4761.034       11897.39       156365.71      42.759949      42.759949      85.519897          16040 
    206000   3408.0243      298879.1       1258.7645      297412.73      300055.89      299168.69     -1873.7321     -1032.8773      2636.9911      7065.5277      4754.5063      11820.034      156431.87      42.765978      42.765978      85.531957          16040 
    207000   3362.0039      298274.32      1265.1873      300169.09      296811.77      297842.1      -138.76091     -1463.6657      312.80429      6970.1182      4659.4781      11629.596      156464.41      42.768944      42.768944      85.537888          16040 
    208000   3407.2667      296610.58      1271.6104      294842.49      297555.54      297433.7       1018.2791     -3123.2239      482.24955      7063.957       4725.4747      11789.432      156616.88      42.782831      42.782831      85.565663          16040 
    209000   3406.6281      297184.08      1278.0341      296566.46      297992.34      296993.45      695.11556     -83.877529      100.91197      7062.6333      4723.4726      11786.106      156564         42.778015      42.778015      85.556031          16040 
    210000   3369.4604      301384.51      1284.4589      302525.68      300816.58      300811.26     -944.72195      1969.4933      2030.8686      6985.577       4729.0379      11714.615      156323.25      42.756078      42.756078      85.512156          16040 
    211000   3428.6204      299851.2       1290.8824      299129.39      299357.33      301066.88      259.99317     -1674.6884     -1912.5997      7108.2277      4755.9961      11864.224      156419.82      42.764881      42.764881      85.529761          16040 
    212000   3407.8854      302660.81      1297.3058      302638.99      301169.55      304173.89     -1971.5016      621.8031      -336.45679      7065.2398      4754.353       11819.593      156319.41      42.755728      42.755728      85.511456          16040 
    213000   3410.4012      301097.36      1303.7288      299839.96      302055.03      301397.07     -4334.5988      293.86235      1829.3113      7070.4556      4672.5925      11743.048      156350.3       42.758544      42.758544      85.517088          16040 
    214000   3448.3188      298431.1       1310.1515      298487.37      297545.25      299260.69      544.05509      1722.7518     -1548.6145      7149.0665      4727.3753      11876.442      156583.14      42.779759      42.779759      85.559519          16040 
    215000   3372.684       296936.53      1316.5748      296180.52      296144.34      298484.74      1042.1776     -3264.0294      4271.355       6992.2601      4729.0026      11721.263      156574.82      42.779002      42.779002      85.558003          16040 
    216000   3395.4805      297105.33      1322.9964      295908.98      296062.53      299344.47      209.82195      1231.724       861.92909      7039.522       4618.5909      11658.113      156560.49      42.777697      42.777697      85.555393          16040 
    217000   3414.3833      299962.52      1329.4177      300187.75      298725.05      300974.76      551.07028      666.98265      2329.662       7078.7113      4690.9665      11769.678      156346.39      42.758188      42.758188      85.516376          16040 
    218000   3413.4677      300486.16      1335.8398      302054.83      299576.15      299827.5       2730.1784      2646.009      -73.171492      7076.813       4787.4067      11864.22       156396.77      42.76278       42.76278       85.52556           16040 
    219000   3408.5626      303635.54      1342.2628      304851.22      302241.2       303814.2       1126.2692     -1936.4361     -1206.3728      7066.6438      4749.8433      11816.487      156249.77      42.749377      42.749377      85.498755          16040 
    220000   3337.8255      304478.77      1348.6858      302274.85      305571.46      305589.98     -2695.4896      679.06695      1979.6941      6919.9915      4736.4367      11656.428      156119.79      42.737521      42.737521      85.475041          16040 
    221000   3408.6026      301913.72      1355.1091      301804.39      301770.54      302166.25     -1662.9606     -83.856189      2286.7955      7066.7268      4773.8634      11840.59       156395.5       42.762664      42.762664      85.525328          16040 
    222000   3393.323       298689.91      1361.5319      300151.81      298589.15      297328.78     -2523.7653     -3134.8351      1351.3278      7035.049       4668.2732      11703.322      156474.11      42.769827      42.769827      85.539655          16040 
    223000   3417.9516      297505.95      1367.9552      296382.31      298050.62      298084.92      2252.0766      2835.071      -859.44171      7086.1091      4693.6068      11779.716      156588.27      42.780226      42.780226      85.560452          16040 
    224000   3414.4185      300626.28      1374.3781      300509.46      300932.33      300437.04      595.35161     -1233.9815      3093.7709      7078.7844      4852.7434      11931.528      156505.24      42.772663      42.772663      85.545326          16040 
    225000   3375.8497      297902.54      1380.8008      298832.62      295959.23      298915.78      1895.6606      2232.4616     -409.30044      6998.8232      4719.8365      11718.66       156484.59      42.770782      42.770782      85.541564          16040 
    226000   3380.7195      297972.06      1387.2247      297987.77      297644.89      298283.53      3209.2494      486.66707     -481.20306      7008.9194      4810.5022      11819.422      156609.44      42.782154      42.782154      85.564307          16040 
    227000   3381.1208      296336.48      1393.6475      297731.74      294949.6       296328.09     -958.68369     -1673.3301     -2831.3794      7009.7514      4646.4267      11656.178      156595.29      42.780866      42.780866      85.561731          16040 
    228000   3389.1821      297515.79      1400.0718      298087.19      295184.01      299276.18     -444.93847      3345.3801     -3016.4469      7026.4642      4721.8413      11748.305      156548.27      42.776583      42.776583      85.553166          16040 
    229000   3401.2439      300438.18      1406.4948      300832.41      300218.69      300263.44      2732.3242      992.75335      294.31445      7051.4706      4654.8432      11706.314      156313.72      42.755209      42.755209      85.510418          16040 
    230000   3395.7682      302483.96      1412.9188      303294.31      302589.22      301568.35     -1851.1062     -2045.424      -2710.7883      7040.1184      4751.5441      11791.662      156239.99      42.748486      42.748486      85.496972          16040 
    231000   3428.418       305579.51      1419.3426      305791.63      305846.43      305100.47      2722.9356     -358.25765     -1142.192       7107.8081      4807.4152      11915.223      156147.29      42.740029      42.740029      85.480059          16040 
    232000   3358.3478      301663.89      1425.767       301719.28      299984.37      303288.01     -495.12949     -209.47263      818.60006      6962.5383      4762.2228      11724.761      156260.48      42.750354      42.750354      85.500708          16040 
    233000   3409.0157      298887.45      1432.1899      299507.69      297400.7       299753.97     -317.2919       881.65196      971.88161      7067.5833      4731.6196      11799.203      156538         42.775647      42.775647      85.551295          16040 
    234000   3376.2667      300154.73      1438.6121      300579.02      299896.99      299988.18     -40.662919     -155.7537       3295.2819      6999.6878      4724.5818      11724.27       156323.01      42.756056      42.756056      85.512112          16040 
    235000   3414.4898      301591.03      1445.0354      302463.86      301178.62      301130.62      1455.6706     -1152.3404      1320.8907      7078.9321      4790.5886      11869.521      156347.06      42.758249      42.758249      85.516498          16040 
    236000   3401.5686      304681.13      1451.4582      304494.01      305831.33      303718.06      5561.0847      61.507409      1406.6058      7052.1438      4749.5848      11801.729      156039.75      42.730215      42.730215      85.460431          16040 
    237000   3409.4135      303730.18      1457.8807      304459.46      303272.39      303458.7      -1049.6173      1504.166      -1482.1709      7068.4079      4700.4165      11768.824      156132.22      42.738655      42.738655      85.477309          16040 
    238000   3403.961       302684.37      1464.302       303739.66      300576.39      303737.08      1342.9713     -3035.3783      2995.7958      7057.1038      4739.9312      11797.035      156320.82      42.755857      42.755857      85.511714          16040 
    239000   3400.3228      297630.05      1470.7225      296646.05      297553.46      298690.65     -618.23494      1258.4476      1864.3277      7049.5609      4678.2362      11727.797      156519.93      42.774002      42.774002      85.548003          16040 
    240000   3404.683       295669.4       1477.1401      295411.66      297044.02      294552.54     -232.72246     -3087.1539     -193.99571      7058.6006      4678.6863      11737.287      156705.58      42.790907      42.790907      85.581813          16040 
    241000   3370.8335      296631.68      1483.5588      297622.21      297173.42      295099.42     -2428.6237      318.55023     -1606.7152      6988.4238      4707.473       11695.897      156668.72      42.787552      42.787552      85.575103          16040 
    242000   3410.1506      299536.5       1489.9789      298253.08      298810.2       301546.23     -1010.0402      2228.1588      1759.4437      7069.936       4689.1339      11759.07       156465.6       42.769052      42.769052      85.538105          16040 
    243000   3426.0433      301997.55      1496.3974      301357.48      303987.37      300647.8       757.92923     -192.5885      -3295.5284      7102.8849      4808.8528      11911.738      156414.12      42.764361      42.764361      85.528723          16040 
    244000   3400.5187      302958.9       1502.8186      302346.33      303317.72      303212.65      426.84158     -1298.9263      1121.2354      7049.9672      4745.6103      11795.578      156237.28      42.748238      42.748238      85.496477          16040 
    245000   3452.4721      303574.17      1509.2379      304680.63      303067.35      302974.53     -1955.6554     -1531.8479      2041.801       7157.677       4760.3387      11918.016      156252.46      42.749623      42.749623      85.499246          16040 
    246000   3418.5512      304745.19      1515.6597      303161.37      307001.53      304072.66      681.19197      569.19801     -1174.1391      7087.3521      4763.9892      11851.341      156079.57      42.73385       42.73385       85.4677            16040 
    247000   3426.862       300568.36      1522.0823      301254.34      300619.58      299831.15     -803.1705       139.33003      813.72554      7104.5822      4704.9326      11809.515      156382.59      42.761487      42.761487      85.522974          16040 
    248000   3429.9541      298036.45      1528.5039      296952.14      298879.99      298277.22     -1460.7207      3584.7688     -71.522345      7110.9927      4639.4989      11750.492      156461.59      42.768687      42.768687      85.537374          16040 
    249000   3396.1894      297187.48      1534.926       295781.71      297172.79      298607.94      1516.4925     -3348.8488      1654.2024      7040.9915      4783.3437      11824.335      156603.94      42.781653      42.781653      85.563306          16040 
    250000   3411.3703      298938.82      1541.3472      297339.98      300176.88      299299.59     -327.44474     -2958.4903      1202.5611      7072.4648      4656.4543      11728.919      156408.86      42.763881      42.763881      85.527763          16040 
    251000   3423.5874      298333.63      1547.7678      298338.97      298101.31      298560.61     -1775.3323      1119.3539      753.01516      7097.7933      4738.1911      11835.984      156512.79      42.773351      42.773351      85.546702          16040 
    252000   3420.8545      301153.51      1554.1889      302662.69      300921.09      299876.77     -142.43004      965.59469     -2660.232       7092.1275      4714.0199      11806.147      156345.75      42.758129      42.758129      85.516258          16040 
    253000   3399.9777      304307.51      1560.6117      304646.32      303652.63      304623.59     -2472.4461     -1042.877       408.09575      7048.8455      4694.5362      11743.382      156131.34      42.738574      42.738574      85.477149          16040 
    254000   3418.9186      302907.97      1567.0325      303198.54      304119.29      301406.07     -1115.4079      2243.95        1148.2277      7088.1138      4703.049       11791.163      156260.99      42.750401      42.750401      85.500802          16040 
    255000   3356.0681      302477.34      1573.4542      300546.39      301874.62      305011         7.1880046      770.44341     -1474.4737      6957.812       4746.9912      11704.803      156242.48      42.748713      42.748713      85.497425          16040 
    256000   3422.2672      302948.82      1579.876       302631.57      301792.72      304422.16     -700.20788      3899.4854     -247.81553      7095.0561      4716.0409      11811.097      156208.2       42.745587      42.745587      85.491173          16040 
    257000   3389.8022      307844.11      1586.2956      308492.76      307024.83      308014.75      1426.123      -2436.5333     -800.68301      7027.7497      4789.9616      11817.711      156039.39      42.730182      42.730182      85.460364          16040 
    258000   3458.7536      305135.78      1592.7159      304794.02      304803.42      305809.89      3713.1651      1396.8645     -87.696305      7170.7         4715.0803      11885.78       156200.67      42.7449        42.7449        85.489799          16040 
    259000   3390.5014      300208.81      1599.1384      298838.34      301468.18      300319.92      64.179575      386.31961     -1308.8205      7029.1993      4771.2456      11800.445      156394.13      42.762539      42.762539      85.525078          16040 
    260000   3385.8814      296291.44      1605.559       295818.15      295135.73      297920.42     -1041.2933     -1016.9179     -0.74384116     7019.6211      4674.2534      11693.875      156619.53      42.783073      42.783073      85.566146          16040 
    261000   3411.1939      296455.88      1611.9796      295656.88      296466.11      297244.65      1506.0247      1664.9551     -1295.7498      7072.099       4752.3539      11824.453      156685.63      42.78909       42.78909       85.578181          16040 
    262000   3395.7313      296620.47      1618.3983      298836.01      295257.25      295768.16      340.5917       1455.5496     -1053.5561      7040.0419      4642.0255      11682.067      156562.6       42.777888      42.777888      85.555776          16040 
    263000   3421.6956      297211.35      1624.8174      296711.55      298846.21      296076.29     -269.8075      -510.77671     -614.83597      7093.8712      4698.0082      11791.879      156646.64      42.785541      42.785541      85.571083          16040 
    264000   3378.2447      302502.98      1631.2364      303834.18      302803.2       300871.57      3358.1285     -120.29364     -173.8265       7003.7887      4714.3114      11718.1        156320.14      42.755794      42.755794      85.511589          16040 
    265000   3447.0084      300637.15      1637.6564      300728.76      300770.55      300412.16      867.61351      190.04841      1099.5281      7146.3498      4767.8866      11914.236      156419.74      42.764873      42.764873      85.529746          16040 
    266000   3444.5464      302917.79      1644.078       302475.44      303699.78      302578.15      1122.5133     -1600.6397      363.09768      7141.2456      4630.9368      11772.182      156255.52      42.749902      42.749902      85.499805          16040 
    267000   3402.3263      303151.92      1650.4975      303380.46      303852.07      302223.22      1484.2109     -436.48809      1822.1813      7053.7146      4648.9671      11702.682      156181.11      42.743115      42.743115      85.486231          16040 
    268000   3392.4727      301040.81      1656.9176      300541.86      301093.27      301487.29     -1923.0609      2976.102       490.5074       7033.2862      4728.7896      11762.076      156346.41      42.758189      42.758189      85.516378          16040 
    269000   3416.8099      297544.18      1663.3385      296329.25      297379.51      298923.77      1452.4407      1300.502       362.34798      7083.742       4647.7089      11731.451      156608.94      42.782108      42.782108      85.564217          16040 
    270000   3401.8995      296980.4       1669.759       296196.95      296138.06      298606.2      -267.6161       2359.0672     -3986.8744      7052.8299      4660.6757      11713.506      156597.7       42.781085      42.781085      85.562169          16040 
    271000   3394.2961      298656.72      1676.1806      299340.6       299922.61      296706.97      1332.7098     -405.05759     -1695.6001      7037.0664      4769.7149      11806.781      156574.09      42.778935      42.778935      85.55787           16040 
    272000   3409.3069      299689.5       1682.6035      298108.47      301246.54      299713.48      1099.994       1051.8782     -1692.5793      7068.187       4703.7349      11771.922      156426.19      42.765461      42.765461      85.530921          16040 
    273000   3393.202       301568.7       1689.0246      301601.56      301918.78      301185.76     -1775.4128      400.84052     -1053.9976      7034.7982      4744.4068      11779.205      156261.03      42.750404      42.750404      85.500809          16040 
    274000   3379.0351      301192.05      1695.4452      301425.85      302128.75      300021.53     -2667.1883     -932.95168     -661.87201      7005.4272      4784.8898      11790.317      156302.43      42.75418       42.75418       85.50836           16040 
    275000   3362.2094      306687.91      1701.8684      306260.24      308055.42      305748.06      546.48785      457.7057       1669.4187      6970.5441      4723.1892      11693.733      155966.98      42.723572      42.723572      85.447144          16040 
    276000   3437.0343      303433.95      1708.2906      302462.21      303997.9       303841.74      611.08915      340.22508     -511.29252      7125.6714      4673.4241      11799.096      156254.49      42.749808      42.749808      85.499616          16040 
    277000   3439.4903      297569.81      1714.7125      297754.94      298235.18      296719.31      208.14119      2420.9319     -1939.3505      7130.7632      4701.6809      11832.444      156627.96      42.78384       42.78384       85.56768           16040 
    278000   3371.3622      294761.06      1721.135       293722.68      296842.31      293718.19      973.40839      2408.5361     -448.58513      6989.5197      4649.6474      11639.167      156659.64      42.786725      42.786725      85.57345           16040 
    279000   3389.9483      296977.65      1727.5567      296537.26      297370.82      297024.88     -220.42872     -987.82232     -295.9751       7028.0526      4578.6134      11606.666      156514.82      42.773536      42.773536      85.547072          16040 
    280000   3367.1442      297427.29      1733.9759      297769.45      297551.73      296960.69     -658.61042      282.14906      1149.4846      6980.7751      4785.0471      11765.822      156529.71      42.774892      42.774892      85.549785          16040 
    281000   3397.7175      302186.84      1740.3965      302103.05      301485.62      302971.85     -1420.5847      2620.8877     -2427.3509      7044.1596      4699.5968      11743.756      156287.97      42.752862      42.752862      85.505723          16040 
    282000   3422.0379      301937.61      1746.817       299671.88      303013.25      303127.69      4146.3051      756.01545     -2035.6959      7094.5809      4763.7834      11858.364      156229.14      42.747496      42.747496      85.494993          16040 
    283000   3406.2448      304309.7       1753.2373      306853.67      304091.79      301983.64      1380.1783      1930.1895      1080.5327      7061.8386      4730.8119      11792.65       156096.26      42.735373      42.735373      85.470746          16040 
    284000   3373.0507      300286.28      1759.6565      301423.3       299195.85      300239.68      665.28986      205.60079     -1497.5233      6993.0204      4689.1726      11682.193      156357.47      42.759197      42.759197      85.518395          16040 
    285000   3380.7484      299828.11      1766.0756      301861.46      298637.02      298985.84      837.83262      560.64287      1371.6169      7008.9793      4690.864       11699.843      156428.84      42.765703      42.765703      85.531405          16040 
    286000   3391.173       299007.72      1772.4958      299058.26      297261.97      300702.94      647.31256     -225.61672      717.65041      7030.5916      4733.0296      11763.621      156518.05      42.77383       42.77383       85.54766           16040 
[...]
   3930000   3621.7778      301527.84      6770.6868      297950.64      301584.95      305047.93     -1922.371      -1717.5528      1199.3512      7508.6824      8928.4092      16437.092      157744.66      42.822316      42.822316      86.022959          16040 
   3931000   3604.7385      299341.6       6777.9919      297090.41      297082.55      303851.83     -3002.4044     -1357.6123      1370.8976      7473.3564      8940.3124      16413.669      157870.4       42.83369       42.83369       86.045808          16040 
   3932000   3604.411       298321.75      6785.3191      298616.09      296950.01      299399.15     -524.16166     -2673.1428     -1974.8422      7472.6773      8951.446       16424.123      157807.63      42.828013      42.828013      86.034402          16040 
   3933000   3608.4876      303082.86      6792.6052      302730.77      302511.42      304006.39     -408.30863     -4927.0146      358.59838      7481.129       8969.3845      16450.513      157663.62      42.814981      42.814981      86.008225          16040 
   3934000   3622.9495      300690.55      6799.8911      300805.87      298518.29      302747.49     -2838.5203      1728.4967     -499.48297      7511.1114      8927.8691      16438.981      157724.28      42.820472      42.820472      86.019253          16040 
   3935000   3625.9277      302425.44      6807.1742      302107.69      299783.62      305385.01      1674.4908      4796.0829     -459.40997      7517.2859      8919.8522      16437.138      157731.57      42.821131      42.821131      86.020578          16040 
   3936000   3594.0895      299328.57      6814.4651      298411.99      299459.48      300114.26     -379.09241     -1782.9175      2459.6618      7451.2788      8960.3649      16411.644      157865.65      42.833261      42.833261      86.044945          16040 
   3937000   3625.251       303796.65      6821.7521      301977.14      303328.75      306084.05     -202.54327     -1670.9268     -2107.8002      7515.8829      8947.547       16463.43       157587.55      42.808094      42.808094      85.994389          16040 
   3938000   3637.7255      309123.04      6829.0642      307920.14      310432.56      309016.41     -514.88586      3110.6551     -2069.7414      7541.7451      8971.6461      16513.391      157322.55      42.784085      42.784085      85.946159          16040 
   3939000   3615.8121      304702.46      6836.3874      304171.47      303950.52      305985.4       879.92874      1082.677      -412.7797       7496.3141      8950.4003      16446.714      157666.13      42.815209      42.815209      86.008681          16040 
   3940000   3613.3803      300964.01      6843.677       298414.51      298896.12      305581.42     -944.09539     -4333.3293     -1456.0852      7491.2725      8934.2064      16425.479      157771.97      42.824787      42.824787      86.027922          16040 
   3941000   3633.9788      302756.35      6850.9602      303017.01      301559.07      303692.96      1848.9634      161.73035     -2506.6811      7533.9775      8901.9146      16435.892      157714.2       42.81956       42.81956       86.017421          16040 
   3942000   3620.3661      295981.42      6858.2444      296754.6       294165.94      297023.71      2091.9079      2200.9012      122.31927      7505.7556      8876.0381      16381.794      158002.59      42.845642      42.845642      86.069818          16040 
   3943000   3597.619       292242.04      6865.529       290550.1       291624.49      294551.53      1805.8095      236.41765      2155.4651      7458.5961      8867.1853      16325.781      158303.43      42.872818      42.872818      86.124409          16040 
   3944000   3638.9888      297783.65      6872.8317      295869.89      297579.65      299901.43     -2656.6921     -3351.1364      2693.6121      7544.3642      8854.0621      16398.426      157913.5       42.837588      42.837588      86.053638          16040 
   3945000   3628.2684      298917.61      6880.128       296603.17      296298.84      303850.83      654.9586       1033.6988      1720.1381      7522.1387      8872.7616      16394.9        157930.54      42.839129      42.839129      86.056733          16040 
   3946000   3614.0118      299693.26      6887.4611      300494.89      298353.43      300231.47     -1633.1944      3414.6221     -2968.6481      7492.5819      8918.2957      16410.878      157841.83      42.831106      42.831106      86.040617          16040 
   3947000   3648.9355      299203.85      6894.7459      299599.78      297474.69      300537.06     -2515.4138     -798.68495     -441.02048      7564.9858      8844.1088      16409.095      157847.95      42.831661      42.831661      86.04173           16040 
   3948000   3605.8538      298779.16      6902.0286      298887.76      298872.86      298576.85     -54.315399     -4086.5057      1931.062       7475.6686      8945.0184      16420.687      157783.01      42.825785      42.825785      86.029928          16040 
   3949000   3607.3025      298331.91      6909.3044      299203.29      292576.27      303216.16      2308.3237     -3066.9902      1113.3697      7478.6721      8933.9282      16412.6        157824.25      42.829516      42.829516      86.037422          16040 
   3950000   3601.8467      300083.55      6916.5916      301075.93      297270.61      301904.1       932.03988      3199.5602     -5565.4787      7467.3611      8950.2198      16417.581      157793.84      42.826766      42.826766      86.031898          16040 
   3951000   3637.8896      299848.38      6923.8818      300557.48      298341.94      300645.71      477.07621      3346.8276     -2104.8459      7542.0854      8873.6289      16415.714      157797.28      42.827076      42.827076      86.032522          16040 
   3952000   3613.8572      300866.78      6931.1865      298497.93      299136.86      304965.55     -369.97659     -4426.3266      4563.8303      7492.2613      8920.2028      16412.464      157810.3       42.828255      42.828255      86.034888          16040 
   3953000   3645.4002      300607.66      6938.4728      299222.7       299671.88      302928.41     -704.90979      2659.7827      4321.4456      7557.6564      8829.3041      16386.961      157945.39      42.840472      42.840472      86.059431          16040 
   3954000   3661.4733      296808.64      6945.7654      295325.9       296384.11      298715.91     -753.06908      1066.5775     -1516.4093      7590.9791      8765.4633      16356.442      158107.12      42.855089      42.855089      86.088794          16040 
   3955000   3608.043       294513.77      6953.0632      297093.86      291950.7       294496.75      209.00521     -1031.7278     -4658.745       7480.2072      8861.7449      16341.952      158185.45      42.862165      42.862165      86.103009          16040 
   3956000   3645.9771      295657.1       6960.3874      295175.69      295389.78      296405.85      1707.5379      148.17763     -964.72122      7558.8523      8796.7792      16355.632      158110.96      42.855436      42.855436      86.089492          16040 
   3957000   3617.3233      297055.81      6967.6777      295514.91      295841.71      299810.82     -250.72071      3338.7143      3337.3415      7499.4472      8878.9861      16378.433      157984.18      42.843978      42.843978      86.066475          16040 
   3958000   3614.7974      295712.65      6974.9593      294086.6       294955.34      298096        -382.92342     -281.55389     -1265.0262      7494.2104      8863.3093      16357.52       158094.56      42.853954      42.853954      86.086515          16040 
   3959000   3656.9195      297634.41      6982.2338      294207.08      299982.39      298713.76     -1449.9651     -683.91175      1508.0839      7581.5383      8793.4743      16375.013      157996.24      42.845068      42.845068      86.068664          16040 
   3960000   3604.601       303888.31      6989.51        303384.26      302168.66      306112.03      589.18399     -2126.8389     -577.95016      7473.0712      8953.6944      16426.766      157715.63      42.819688      42.819688      86.01768           16040 
   3961000   3662.565       298351.67      6996.7984      298878.12      299160.77      297016.12      622.36089      844.18604     -2845.3741      7593.2425      8813.7166      16406.959      157820.18      42.829148      42.829148      86.036683          16040 
   3962000   3622.9586      298022.72      7004.0941      297266.55      296801.58      300000.02      1583.9807     -1191.2532      1323.358       7511.1303      8868.9746      16380.105      157957.02      42.841523      42.841523      86.061543          16040 
   3963000   3590.1765      297634.66      7011.4072      297122.05      295265.23      300516.71      1129.3491     -502.50902     -919.78477      7443.1664      8934.847       16378.013      157964.51      42.842201      42.842201      86.062904          16040 
   3964000   3630.8287      296785.54      7018.6918      296589.29      295133.16      298634.16      343.53576     -1225.6309      3834.6883      7527.4466      8838.0704      16365.517      158030.4       42.848156      42.848156      86.074868          16040 
   3965000   3599.1076      296091.3       7025.9707      294566.2       293401.73      300305.96      646.6692      -2231.4525      3256.9895      7461.6823      8902.424       16364.106      158035.39      42.848608      42.848608      86.075774          16040 
   3966000   3611.8621      300355.63      7033.2446      298029.05      300414.45      302623.37      133.13807      2285.4168      649.63403      7488.1251      8923.7833      16411.908      157777.16      42.825256      42.825256      86.028865          16040 
   3967000   3633.4999      303729.42      7040.5187      302263.11      303388.36      305536.79     -1147.1536     -327.18336     -2161.0605      7532.9846      8888.5644      16421.549      157720.71      42.820148      42.820148      86.018603          16040 
   3968000   3624.1622      300391.78      7047.8025      301438.21      296309.46      303427.67     -234.18752     -980.14623      487.80954      7513.6256      8898.7569      16412.383      157766.89      42.824327      42.824327      86.026998          16040 
   3969000   3611.6355      302414.44      7055.0999      301215.04      301217         304811.27     -2414.4954     -275.94784     -588.7909       7487.6553      8915.1836      16402.839      157816.71      42.828834      42.828834      86.036052          16040 
   3970000   3622.3874      302723.26      7062.4261      300651.46      304367.34      303150.98     -2272.9707      2207.8019     -2833.9538      7509.946       8912.2292      16422.175      157711.51      42.819315      42.819315      86.016931          16040 
   3971000   3602.0911      300569.91      7069.7112      297948.76      299685.41      304075.56      534.75769      622.28565     -927.85336      7467.8678      8920.1723      16388.04       157884.59      42.834974      42.834974      86.048386          16040 
   3972000   3598.1869      298382.98      7076.9911      298177.45      297704.12      299267.37      2492.9852      3006.8154      2290.5684      7459.7736      8932.96        16392.734      157856.68      42.832449      42.832449      86.043315          16040 
   3973000   3598.6258      298419.06      7084.2591      297196.07      297778.6       300282.5      -270.85067     -1432.2806      3187.5092      7460.6836      8904.4762      16365.16       158003.78      42.84575       42.84575       86.070034          16040 
   3974000   3620.8198      302806.43      7091.5321      302613.24      302177.36      303628.7       794.97731     -2832.5588     -2628.5727      7506.6961      8912.6019      16419.298      157713.81      42.819524      42.819524      86.01735           16040 
   3975000   3595.842       302260.22      7098.8159      300478.19      301840.7       304461.77      463.3286       899.68208     -5146.9546      7454.912       8966.6985      16421.611      157701.74      42.818431      42.818431      86.015155          16040 
   3976000   3597.1249      303679.69      7106.1158      305467.32      302688.9       302882.85      1896.088       2865.5937      538.49152      7457.5719      8968.8797      16426.452      157678.27      42.816307      42.816307      86.010888          16040 
   3977000   3615.3562      300717.37      7113.3918      300295.86      299142.99      302713.27     -1727.9531     -1683.9426      3072.461       7495.3689      8926.2179      16421.587      157705.1       42.818736      42.818736      86.015767          16040 
   3978000   3637.8778      309139.23      7120.6614      307983.18      308066.05      311368.46     -4336.8084     -5395.3445      60.837145      7542.0609      8962.2786      16504.34       157264.79      42.778849      42.778849      85.93564           16040 
   3979000   3651.3285      303482.82      7127.9473      301523.59      301486.74      307438.14     -859.5601      -447.00459     -5186.2905      7569.9468      8859.7398      16429.687      157655.88      42.814281      42.814281      86.006817          16040 
   3980000   3607.323       307396.9       7135.2562      307925.8       307600.82      306664.1       74.479299      3073.2363      5274.2223      7478.7145      8974.1627      16452.877      157530.11      42.802892      42.802892      85.983939          16040 
   3981000   3602.9645      300477.95      7142.5481      301050.48      298963.43      301419.95     -1326.8305     -4159.703       1701.0909      7469.6785      8940.0055      16409.684      157757.02      42.823434      42.823434      86.025205          16040 
   3982000   3618.9765      302164.2       7149.814       301807.92      300304.46      304380.22      3608.406      -810.67617      1241.0227      7502.8747      8928.0176      16430.892      157641.7       42.812997      42.812997      86.004239          16040 
   3983000   3605.7592      302387.62      7157.0886      299201.69      302316.43      305644.74      1866.6171     -411.15819     -1853.8566      7475.4725      8955.7475      16431.22       157637.09      42.81258       42.81258       86.0034            16040 
   3984000   3658.1159      307078.23      7164.3685      305603.46      306619.13      309012.08      2517.0216     -1436.9094      1810.8315      7584.0185      8890.6663      16474.685      157407.67      42.7918        42.7918        85.961656          16040 
   3985000   3632.9758      304079.16      7171.6502      303361.01      303151.39      305725.09      318.1803      -2801.6962      551.03408      7531.8981      8897.3527      16429.251      157647.76      42.813545      42.813545      86.005339          16040 
   3986000   3614.6732      302388.02      7178.9465      298408.27      304155.52      304600.28     -1250.2766      504.65826     -706.291        7493.9529      8904.6094      16398.562      157806.92      42.827949      42.827949      86.034274          16040 
   3987000   3612.9868      298921.73      7186.2613      297691.15      298006.12      301067.91     -3529.0116      1000.4684     -2640.3253      7490.4567      8904.3045      16394.761      157823.81      42.829476      42.829476      86.037342          16040 
   3988000   3607.5218      300158         7193.5542      297203.24      299255.05      304015.72     -2591.6884     -3758.703       593.61599      7479.1267      8905.9331      16385.06       157871.03      42.833747      42.833747      86.045922          16040 
   3989000   3624.8775      299105.44      7200.8245      298352.24      296990.2       301973.89     -2577.821      -763.64534      3474.367       7515.1086      8875.2788      16390.387      157838.76      42.830829      42.830829      86.04006           16040 
   3990000   3663.2214      296906.47      7208.0989      296578.67      295316.91      298823.85     -778.82479      3383.5467     -3242.0695      7594.6033      8750.2287      16344.832      158083.96      42.852997      42.852997      86.084591          16040 
   3991000   3643.5856      297983.54      7215.3689      296218.57      298765.25      298966.81      2546.8594      3747.2036     -5637.1149      7553.8943      8792.7456      16346.64       158074.92      42.85218       42.85218       86.08295           16040 
   3992000   3602.6045      293890.87      7222.6465      290399.68      295569.18      295703.75      2032.9971     -4672.8032     -387.39977      7468.9321      8856.7668      16325.699      158186.58      42.862267      42.862267      86.103213          16040 
   3993000   3639.8285      294236.87      7229.9423      295068.09      293593         294049.52     -2481.032       67.181696      1996.2197      7546.1051      8800.6409      16346.746      158072.63      42.851973      42.851973      86.082535          16040 
   3994000   3603.922       296701.22      7237.2525      293771.74      296301.21      300030.7      -206.48932      84.275544      544.87674      7471.6637      8875.8242      16347.488      158065.73      42.851349      42.851349      86.081282          16040 
   3995000   3603.6921      297742.38      7244.5515      297923.83      297963.27      297340.04      2935.093       3808.2133     -1286.2931      7471.1869      8882.488       16353.675      158030.75      42.848188      42.848188      86.074931          16040 
   3996000   3625.9021      299635.4       7251.8218      296676.09      300866.48      301363.64      1438.1522     -259.7629       1069.4332      7517.2327      8869.735       16386.968      157851.17      42.831951      42.831951      86.042314          16040 
   3997000   3641.1891      301166.45      7259.0974      300518.95      300703.48      302276.93      495.56593     -3868.1511      2522.8769      7548.9258      8852.0968      16401.023      157770.32      42.824638      42.824638      86.027623          16040 
   3998000   3631.4427      303910.08      7266.3722      299858.32      305095.31      306776.62     -2013.7177     -443.73246      1689.6798      7528.7196      8898.2815      16427.001      157630.76      42.812006      42.812006      86.002248          16040 
   3999000   3613.7812      303125.27      7273.6535      301320.01      302205.65      305850.16      1976.1776     -368.67504     -1178.8051      7492.1038      8925.3339      16417.438      157681.43      42.816593      42.816593      86.011462          16040 
   4000000   3661.4513      302385.57      7280.9613      302111.45      299266.25      305779.01     -4123.2154     -1748.0869     -2629.1278      7590.9335      8831.1421      16422.076      157656.9       42.814373      42.814373      86.007002          16040 
Loop time of 7280.96 on 8 procs for 1000000 steps with 16040 atoms

Performance: 5.933 ns/day, 4.045 hours/ns, 137.345 timesteps/s
60.1% CPU use with 1 MPI tasks x 8 OpenMP threads

MPI task timing breakdown:
Section |  min time  |  avg time  |  max time  |%varavg| %total
---------------------------------------------------------------
Pair    | 7002.6     | 7002.6     | 7002.6     |   0.0 | 96.18
Neigh   | 10.138     | 10.138     | 10.138     |   0.0 |  0.14
Comm    | 38.682     | 38.682     | 38.682     |   0.0 |  0.53
Output  | 1.5025     | 1.5025     | 1.5025     |   0.0 |  0.02
Modify  | 203.17     | 203.17     | 203.17     |   0.0 |  2.79
Other   |            | 24.87      |            |       |  0.34

Nlocal:          16040 ave       16040 max       16040 min
Histogram: 1 0 0 0 0 0 0 0 0 0
Nghost:          13774 ave       13774 max       13774 min
Histogram: 1 0 0 0 0 0 0 0 0 0
Neighs:              0 ave           0 max           0 min
Histogram: 1 0 0 0 0 0 0 0 0 0
FullNghs:  1.47293e+06 ave 1.47293e+06 max 1.47293e+06 min
Histogram: 1 0 0 0 0 0 0 0 0 0

Total # of neighbors = 1472934
Ave neighs/atom = 91.828803
Neighbor list builds = 31454
Dangerous builds = 0
Total wall time: 7:43:58
