
atom_style atomic
units metal
boundary p p p
#atom_modify sort 0 0.0
newton on

read_data data.lammps
Reading data file ...
  orthogonal box = (0 0 0) to (43.790145 43.790145 87.58029)
  1 by 1 by 1 MPI processor grid
  reading atoms ...
  16040 atoms
  read_data CPU = 0.040 seconds
# replicate 10 10 20

### interactions

pair_style flare
pair_coeff * * lmp.flare
Reading potential file lmp.flare with DATE: Thu

# compute unc all flare/std/atom L_inv_lmp.flare sparse_desc_lmp.flare
# compute MaxUnc all reduce max c_unc

mass 1 12.011000
mass 2 28.085000

thermo_style custom step temp press cpu pxx pyy pzz pxy pxz pyz ke pe etotal vol lx ly lz atoms    #c_MaxUnc
thermo 1000
timestep 0.0005
restart 100000 restart_*.dat

#################### Equilibrate at P and T_es ##############################
velocity all create $T 41928459 rot yes dist gaussian
velocity all create 2800 41928459 rot yes dist gaussian
fix mom all momentum 1000 linear 1 1 1 angular

fix 1 all npt temp $T $T $(100.0*dt) iso $P $P $(1000.0*dt)
fix 1 all npt temp 2800 $T $(100.0*dt) iso $P $P $(1000.0*dt)
fix 1 all npt temp 2800 2800 $(100.0*dt) iso $P $P $(1000.0*dt)
fix 1 all npt temp 2800 2800 0.050000000000000002776 iso $P $P $(1000.0*dt)
fix 1 all npt temp 2800 2800 0.050000000000000002776 iso 900000 $P $(1000.0*dt)
fix 1 all npt temp 2800 2800 0.050000000000000002776 iso 900000 900000 $(1000.0*dt)
fix 1 all npt temp 2800 2800 0.050000000000000002776 iso 900000 900000 0.5
dump 1 all custom 1000 1equil.bin id type x y z vx vy vz
run   10000 # report performance
Neighbor list info ...
  update every 1 steps, delay 10 steps, check yes
  max neighbors/atom: 2000, page size: 100000
  master list distance cutoff = 6
  ghost atom cutoff = 6
  binsize = 6, bins = 8 8 15
  1 neighbor lists, perpetual/occasional/extra = 1 0 0
  (1) pair flare/kk, perpetual
      attributes: full, newton on, kokkos_device
      pair build: full/bin/kk/device
      stencil: full/bin/3d
      bin: kk/device
Per MPI rank memory allocation (min/avg/max) = 16.04 | 16.04 | 16.04 Mbytes
   Step          Temp          Press           CPU            Pxx            Pyy            Pzz            Pxy            Pxz            Pyz           KinEng         PotEng         TotEng         Volume           Lx             Ly             Lz          Atoms   
         0   2800           71353.551      0              72052.679      70864.57       71143.404      1213.1426     -256.8206      -717.39017      5804.9697     -2985.8921      2819.0777      167941.93      43.790145      43.790145      87.58029           16040 
      1000   2830.2274      898351.46      7.3171897      898977         898685.24      897392.13     -716.84712      1074.8449     -1132.8283      5867.6372      10498.93       16366.567      132309.12      40.443922      40.443922      80.887844          16040 
      2000   2762.7503      899800.5       14.856412      899304.81      899732.89      900363.8      -347.43652      592.0906      -437.74561      5727.7435      10396.557      16124.3        132088.81      40.421461      40.421461      80.842922          16040 
      3000   2801.9047      898865.65      22.394347      899180.15      897524.62      899892.17     -6238.4039      436.70129     -4090.9995      5808.9185      10506.319      16315.237      132118.82      40.424522      40.424522      80.849045          16040 
      4000   2782.9761      900992.36      29.929492      901889.05      899454.05      901633.98     -1407.3678      632.47874     -2212.4683      5769.6757      10418.227      16187.903      132012.1       40.413635      40.413635      80.82727           16040 
      5000   2815.7332      900041.9       37.468886      899826.21      898082.04      902217.44     -2185.9149     -1439.9219     -1371.9324      5837.5878      10472.617      16310.205      132082.26      40.420793      40.420793      80.841586          16040 
      6000   2781.4387      901270.16      45.004201      900150.42      899993.91      903666.16      3255.5475      1820.721      -2698.9121      5766.4883      10416.333      16182.821      132013.16      40.413743      40.413743      80.827487          16040 
      7000   2839.1387      899675.62      52.539614      899454.24      898836.7       900735.92     -86.744222      5131.3851     -741.15147      5886.1122      10469.006      16355.118      132020.16      40.414457      40.414457      80.828914          16040 
      8000   2782.6534      898450.32      60.081875      897026.43      900638.69      897685.82      4453.6958     -709.03669      329.09506      5769.0066      10441.222      16210.229      132019.9       40.414431      40.414431      80.828862          16040 
      9000   2802.3019      898991.31      67.62283       899282.83      900916.35      896774.74     -5435.2511      1738.4494     -2344.6094      5809.742       10456.864      16266.606      132074.83      40.420035      40.420035      80.84007           16040 
     10000   2793.5511      897606.36      75.163562      895711.29      898362.55      898745.26      896.58459     -633.79812     -31.881257      5791.5997      10397.999      16189.599      132092.8       40.421868      40.421868      80.843737          16040 
Loop time of 75.1636 on 8 procs for 10000 steps with 16040 atoms

Performance: 5.747 ns/day, 4.176 hours/ns, 133.043 timesteps/s
61.7% CPU use with 1 MPI tasks x 8 OpenMP threads

MPI task timing breakdown:
Section |  min time  |  avg time  |  max time  |%varavg| %total
---------------------------------------------------------------
Pair    | 72.142     | 72.142     | 72.142     |   0.0 | 95.98
Neigh   | 0.081679   | 0.081679   | 0.081679   |   0.0 |  0.11
Comm    | 0.33764    | 0.33764    | 0.33764    |   0.0 |  0.45
Output  | 0.014145   | 0.014145   | 0.014145   |   0.0 |  0.02
Modify  | 2.3113     | 2.3113     | 2.3113     |   0.0 |  3.07
Other   |            | 0.2772     |            |       |  0.37

Nlocal:          16040 ave       16040 max       16040 min
Histogram: 1 0 0 0 0 0 0 0 0 0
Nghost:          14578 ave       14578 max       14578 min
Histogram: 1 0 0 0 0 0 0 0 0 0
Neighs:              0 ave           0 max           0 min
Histogram: 1 0 0 0 0 0 0 0 0 0
FullNghs:  1.77551e+06 ave 1.77551e+06 max 1.77551e+06 min
Histogram: 1 0 0 0 0 0 0 0 0 0

Total # of neighbors = 1775508
Ave neighs/atom = 110.69252
Neighbor list builds = 201
Dangerous builds = 0
run  990000
Per MPI rank memory allocation (min/avg/max) = 16.47 | 16.47 | 16.47 Mbytes
   Step          Temp          Press           CPU            Pxx            Pyy            Pzz            Pxy            Pxz            Pyz           KinEng         PotEng         TotEng         Volume           Lx             Ly             Lz          Atoms   
     10000   2793.5511      897606.36      0              895711.29      898362.55      898745.26      896.58459     -633.79812     -31.881257      5791.5997      10397.999      16189.599      132092.8       40.421868      40.421868      80.843737          16040 
     11000   2791.2019      896475.26      7.5363194      897934.89      896103.8       895387.09      2275.4646      3535.6548      1232.7096      5786.7294      10405.155      16191.884      132108.73      40.423493      40.423493      80.846986          16040 
     12000   2802.8429      904286.08      15.078074      903450.22      903958.89      905449.13     -221.15784      213.44819     -3335.2747      5810.8637      10477.743      16288.607      131885.5       40.400712      40.400712      80.801424          16040 
     13000   2797.5848      905336.98      22.619122      903649.74      906160.04      906201.15     -1101.6361      4514.1758      1589.7243      5799.9625      10545.861      16345.823      131890.11      40.401182      40.401182      80.802365          16040 
     14000   2819.3862      902705.04      30.15905       902519.46      904262.33      901333.33      50.88066      -2757.8573     -226.79136      5845.1613      10406.162      16251.323      131941.21      40.4064        40.4064        80.812799          16040 
     15000   2791.5338      900942.48      37.700943      902256.6       900184.09      900386.75      2508.4076     -1516.2878      5941.6763      5787.4175      10432.883      16220.301      132031.77      40.415642      40.415642      80.831285          16040 
     16000   2808.9854      900834.74      45.239919      900709.82      901128.4       900666.01     -3024.036      -2710.6539      3934.5835      5823.5983      10436.047      16259.646      132028.75      40.415334      40.415334      80.830668          16040 
     17000   2773.5519      900988.34      52.77973       903117.8       899869.94      899977.28     -3104.9659     -2213.6064     -270.3823       5750.1375      10472.925      16223.063      131943.09      40.406591      40.406591      80.813182          16040 
     18000   2815.4854      902399.61      60.319736      903160.07      900018.64      904020.11      4358.588      -1181.0074      669.63446      5837.074       10479.094      16316.168      131964.21      40.408747      40.408747      80.817495          16040 
     19000   2798.8956      902503.4       67.861512      902434.59      902852.73      902222.88     -430.43992      1533.8407      4809.6509      5802.68        10412.441      16215.121      131918.54      40.404086      40.404086      80.808171          16040 
     20000   2815.5694      892115.38      75.400167      892392.93      891935.15      892018.07      4796.1673     -782.07526     -313.3832       5837.2482      10263.776      16101.024      132227.04      40.435557      40.435557      80.871114          16040 
     21000   2841.0163      897513.76      82.937619      897677.29      897412.13      897451.85      2682.8976      149.48756      2423.2459      5890.0048      10419.044      16309.049      132127.35      40.425393      40.425393      80.850786          16040 
     22000   2787.2097      899810.77      90.472403      898783.22      899000.12      901648.96     -2361.528      -676.99177      3437.6507      5778.4527      10455.431      16233.884      132067.46      40.419283      40.419283      80.838566          16040 
     23000   2802.5053      902883.11      98.008383      902680.79      904240.79      901727.75     -4800.9098      349.25305     -4457.736       5810.1636      10364.101      16174.265      132014.79      40.41391       40.41391       80.827819          16040 
     24000   2798.9822      901598.66      105.54586      902190.22      903297.66      899308.09     -97.098641     -1319.719      -2477.1457      5802.8596      10477.135      16279.995      132001.08      40.412511      40.412511      80.825021          16040 
     25000   2783.9847      900085.98      113.07912      899039.93      900800.33      900417.68     -452.15755     -293.26111     -4922.2353      5771.7667      10440.78       16212.546      132021.34      40.414578      40.414578      80.829155          16040 
     26000   2818.7851      896662.26      120.61496      896947.21      897857.35      895182.21     -1631.709       256.4385       1422.6182      5843.915       10390.92       16234.835      132122.82      40.424931      40.424931      80.849861          16040 
     27000   2780.5945      890980.4       128.15203      890926.75      891161.23      890853.21      2259.083      -3995.2039     -2812.1105      5764.7381      10275.925      16040.663      132261.3       40.439049      40.439049      80.878097          16040 
     28000   2790.9607      897119.38      135.69524      898237.51      895217.84      897902.8      -1.8635473      2831.3465      1513.1742      5786.2294      10381.399      16167.629      132092.73      40.421862      40.421862      80.843723          16040 
     29000   2784.3057      903232.39      143.22954      904020.33      902066.48      903610.34      4995.8314     -1556.7767      1010.3504      5772.4323      10480.483      16252.915      131941.77      40.406457      40.406457      80.812914          16040 
     30000   2784.0571      904395.2       150.76283      903101.37      905379.38      904704.85      943.66198     -1706.6405      1433.8588      5771.9168      10436.812      16208.729      131897.17      40.401903      40.401903      80.803807          16040 
     31000   2828.2236      900040.61      158.2909       898714.31      901958.84      899448.67     -3560.5112      228.03994     -712.4918       5863.483       10387.144      16250.627      132045.3       40.417023      40.417023      80.834046          16040 
     32000   2820.6457      899524.1       165.82002      901004.66      898003.36      899564.29      349.43637      1088.7174     -501.32444      5847.7724      10304.908      16152.68       132052.21      40.417727      40.417727      80.835454          16040 
     33000   2801.6409      896563.25      173.35108      893943.79      898976.03      896769.93      111.5669       3990.4852      1540.5422      5808.3715      10326.242      16134.614      132108.38      40.423458      40.423458      80.846915          16040 
     34000   2796.678       898150.48      180.87935      899980.14      897949.19      896522.11     -517.03941     -2465.0019      1874.1443      5798.0824      10427.895      16225.977      132090.27      40.421611      40.421611      80.843221          16040 
     35000   2777.0416      906574.42      188.41207      905950.65      908438.16      905334.44      2931.5576      2312.0754      612.56345      5757.3723      10482.98       16240.353      131843.15      40.396387      40.396387      80.792774          16040 
     36000   2795.9188      904586.3       195.94062      906739.66      904514.73      902504.51     -1837.427      -1124.3282      4949.8488      5796.5086      10441.618      16238.127      131931.55      40.405413      40.405413      80.810827          16040 
     37000   2811.2971      902486.08      203.46995      902643.7       902072.46      902742.06     -3179.4482     -1435.0458      863.75471      5828.3909      10409.553      16237.944      131978.98      40.410255      40.410255      80.82051           16040 
     38000   2805.8395      901982.07      211.00129      904846.28      900919.65      900180.28     -2589.5394     -504.30713     -1166.841       5817.0761      10347.403      16164.479      131998.74      40.412272      40.412272      80.824544          16040 
     39000   2805.6112      903286.7       218.53422      904435.93      902977.18      902447.01      341.7946       4147.39        481.44906      5816.6028      10356.124      16172.727      131956         40.407909      40.407909      80.815819          16040 
     40000   2772.4021      901174.74      226.06677      899303.01      904012.32      900208.88     -174.43722      1010.8087     -3112.2439      5747.7537      10337.843      16085.597      131978.92      40.410249      40.410249      80.820498          16040 
     41000   2792.8618      890964.46      233.59699      890964.72      890393.76      891534.89     -1071.0829      3330.2134     -1680.8026      5790.1708      10265.887      16056.057      132257.66      40.438678      40.438678      80.877356          16040 
     42000   2759.8839      895569.84      241.12918      895659.57      897440.97      893608.97     -6847.5618      3189.7332      5251.0623      5721.8008      10277.567      15999.368      132139.37      40.426618      40.426618      80.853236          16040 
     43000   2798.9883      897764.22      248.65953      898122.6       897845.11      897324.94     -4013.9145     -2889.6161     -419.95525      5802.8723      10343.156      16146.028      132096.24      40.422219      40.422219      80.844438          16040 
     44000   2776.1364      899097.57      256.19301      899133.67      898364.6       899794.46      1885.072      -5940.6161      5291.7559      5755.4957      10296.757      16052.253      132027.1       40.415166      40.415166      80.830331          16040 
     45000   2791.3695      902924.02      263.72642      904228.95      901627.72      902915.38      1310.7997      2293.3947      700.26161      5787.0769      10385.659      16172.736      131960.12      40.40833       40.40833       80.816661          16040 
     46000   2838.8947      905176.92      271.26061      904988.66      904067.24      906474.84      893.66524     -964.07786      1008.4195      5885.6062      10425.271      16310.877      131908.85      40.403096      40.403096      80.806192          16040 
     47000   2809.6455      905158.78      278.79741      904243.29      904357.56      906875.49      1466.4068     -3455.1886      99.224711      5824.9668      10423.742      16248.709      131855.52      40.397651      40.397651      80.795302          16040 
     48000   2806.3895      899218.29      286.33232      899268.03      901771.62      896615.23     -1747.7982      2094.1054     -3013.6395      5818.2165      10393.355      16211.572      132053.46      40.417855      40.417855      80.83571           16040 
     49000   2793.4196      898979.92      293.86757      900425.07      897268.19      899246.51     -3014.9361      1228.5304      2533.336       5791.3273      10358.076      16149.404      132063.37      40.418866      40.418866      80.837733          16040 
     50000   2782.8824      901388.75      301.40451      903469.7       900342.55      900354        -529.29497     -4622.71        153.61583      5769.4814      10370.673      16140.155      131992.1       40.411594      40.411594      80.823188          16040 
     51000   2807.8125      898672.92      308.94139      897666.43      898844.6       899507.73     -1480.8527     -715.03137      2957.4702      5821.1665      10394.419      16215.585      132058.88      40.418408      40.418408      80.836817          16040 
     52000   2816.5228      906299.09      316.47879      905658.15      907442.22      905796.88     -216.37882     -1487.9455     -2260.4407      5839.2249      10409.602      16248.827      131882.28      40.400383      40.400383      80.800767          16040 
     53000   2786.8499      905799.66      324.01695      904892.08      906623.36      905883.55     -3854.2817     -1373.4713      2045.6919      5777.7069      10460.254      16237.961      131841.25      40.396193      40.396193      80.792387          16040 
     54000   2779.1163      902134.86      331.55115      900177.89      901828.35      904398.34      444.75986      299.21969      1450.4203      5761.6735      10448.633      16210.306      131942.28      40.406509      40.406509      80.813017          16040 
     55000   2813.0298      900387.52      339.08474      900589.84      899646.54      900926.17     -2209.0073     -252.53972     -894.49397      5831.9832      10366.042      16198.025      132009.97      40.413418      40.413418      80.826836          16040 
     56000   2783.1452      896570.01      346.62111      897003.63      895272.83      897433.57     -4773.6277     -105.23347      1622.3656      5770.0264      10276.763      16046.79       132108.8       40.423501      40.423501      80.847001          16040 
     57000   2800.8607      895892.19      354.15563      896579.92      894674.06      896422.6      -2130.2788     -3900.7446     -5508.8123      5806.7541      10305.059      16111.814      132171.19      40.429862      40.429862      80.859725          16040 
     58000   2775.16        901386.58      361.68803      902847.63      901265.83      900046.28     -1520.6678     -5281.8064     -1943.8255      5753.4713      10444.184      16197.655      131979.15      40.410272      40.410272      80.820545          16040 
     59000   2781.9653      905549.2       369.22358      906195.71      906696.25      903755.64      2771.6394      3108.3651     -1360.4584      5767.58        10395.814      16163.394      131893.63      40.401542      40.401542      80.803084          16040 
     60000   2791.2145      905049.19      376.75619      905879.32      903023.27      906244.99      1719.8133     -761.19104      3378.2886      5786.7556      10392.595      16179.351      131913.15      40.403535      40.403535      80.80707           16040 
     61000   2833.3431      898445.64      384.28601      898014.62      897720.63      899601.66      3099.2261     -1320.8128     -2578.7569      5874.0967      10357.557      16231.654      132074.73      40.420025      40.420025      80.840049          16040 
     62000   2772.1185      898573.92      391.82058      898860.12      896465.87      900395.77      4893.8368      1525.7497      415.62207      5747.1657      10328.999      16076.165      132082.33      40.420801      40.420801      80.841601          16040 
     63000   2815.0611      899785.04      399.35225      899135.6       899709.27      900510.26     -1522.2631     -1840.3538      410.3781       5836.1944      10395.919      16232.113      132051.22      40.417627      40.417627      80.835253          16040 
     64000   2808.946       906474.19      406.88527      904193.71      905934.21      909294.66      91.66336       98.598123     -407.24652      5823.5166      10402.49       16226.006      131854.72      40.397568      40.397568      80.795137          16040 
     65000   2803.0629      906693.15      414.41761      906521.76      907761.06      905796.62      410.8292       1642.0015      1941.0617      5811.3198      10490.795      16302.114      131926.63      40.404911      40.404911      80.809822          16040 
     66000   2810.8972      900625.27      421.95219      901432.97      901164.77      899278.09      1437.7283     -3642.8148      1044.9842      5827.5619      10370.615      16198.177      132048.72      40.417371      40.417371      80.834742          16040 
     67000   2773.0327      898941.13      429.48803      898852.44      898562.72      899408.23      2410.6486      223.89298      1647.6915      5749.061       10276.062      16025.123      132031.08      40.415572      40.415572      80.831144          16040 
     68000   2811.5338      899683.91      437.02356      900840.03      899409.14      898802.55      1662.6149     -3491.2338     -1657.7478      5828.8816      10350.839      16179.721      132056.97      40.418214      40.418214      80.836427          16040 
     69000   2810.9157      902493.76      444.55982      901706.19      903912.86      901862.23      2417.9909      334.99725      891.52564      5827.6002      10280.411      16108.011      131974.43      40.40979       40.40979       80.819581          16040 
     70000   2797.7055      903936.1       452.09489      901412.66      902828.93      907566.7       3309.7608     -2265.5313      1307.7918      5800.2128      10409.028      16209.241      131943.15      40.406598      40.406598      80.813195          16040 
     71000   2794.9315      897401.55      459.631        895399.27      899472.52      897332.87     -4029.8702      145.50289     -1850.9891      5794.4616      10330.617      16125.079      132105.78      40.423192      40.423192      80.846385          16040 
     72000   2778.6364      897367.65      467.16904      895994.54      898483.08      897625.32      6792.7806      1265.7502      578.37269      5760.6786      10301.939      16062.617      132086.07      40.421182      40.421182      80.842363          16040 
     73000   2798.7798      897716         474.70778      898334.44      897731.1       897082.44     -949.86859      731.72818      5216.5073      5802.44        10268.939      16071.379      132070.72      40.419616      40.419616      80.839232          16040 
     74000   2803.7877      897495.26      482.24604      899245.34      896902.28      896338.16      823.58255     -207.91689      2268.2936      5812.8224      10359.601      16172.423      132069.97      40.41954       40.41954       80.83908           16040 
     75000   2812.8846      899241.31      489.784        900428.31      896196.06      901099.57     -952.47848      594.16021     -2035.5016      5831.682       10346.322      16178.004      132030.97      40.415561      40.415561      80.831121          16040 
     76000   2813.2765      901597.13      497.31994      902872.46      900194.98      901723.95      1575.0865     -45.669081     -1929.5874      5832.4947      10425.435      16257.93       131970.59      40.409399      40.409399      80.818798          16040 
     77000   2819.2426      905035.79      504.85529      902167.12      906177.67      906762.59     -1206.6617     -1246.3685      313.46088      5844.8635      10365.265      16210.129      131883.5       40.400508      40.400508      80.801016          16040 
     78000   2806.7859      897356.11      512.39262      897289.85      898402.82      896375.67     -1577.0715     -1692.099      -4888.641       5819.0383      10336.518      16155.556      132039.44      40.416425      40.416425      80.83285           16040 
     79000   2778.7812      894004.41      519.92831      895490.06      893414.3       893108.86     -1803.6123     -1286.5724     -125.11919      5760.9787      10311.78       16072.759      132146.23      40.427318      40.427318      80.854635          16040 
     80000   2835.9248      900289.52      527.46249      896875.29      904722.39      899270.89      409.17226     -1106.0925      5514.9856      5879.4492      10323.701      16203.15       132038.6       40.416339      40.416339      80.832679          16040 
     81000   2793.1728      900438.26      534.99337      899790.34      900729.19      900795.26      371.79187      1116.749       3993.524       5790.8156      10339.581      16130.397      132034.74      40.415946      40.415946      80.831891          16040 
     82000   2832.1813      900221.99      542.52946      902221.65      899687.66      898756.67      1396.844      -410.73723      1879.8515      5871.6882      10357.618      16229.306      132024.98      40.414949      40.414949      80.829898          16040 
     83000   2800.1884      903262.17      550.06403      901598.78      903114.53      905073.21     -1126.0411     -2347.782      -1802.9626      5805.3603      10383.441      16188.802      131920.77      40.404313      40.404313      80.808625          16040 
     84000   2809.9394      897072.85      557.59456      896056.62      897397.09      897764.84     -1158.8937      562.96099      367.07093      5825.5761      10281.278      16106.854      132088.31      40.42141       40.42141       80.842821          16040 
     85000   2760.0345      891715.12      565.12418      891047.78      890799.83      893297.76      2759.3148     -934.69498      3837.5181      5722.1131      10172.1        15894.213      132239.88      40.436866      40.436866      80.873731          16040 
     86000   2805.6296      899036.8       572.65947      899627.79      899055.34      898427.27      571.42538     -933.85591     -2884.6615      5816.6411      10325.312      16141.953      132062.83      40.418811      40.418811      80.837622          16040 
     87000   2779.9992      900616.83      580.19132      900865.62      900494.17      900490.69     -241.73426      1961.043       3175.2481      5763.5039      10324.179      16087.683      131990.01      40.411381      40.411381      80.822762          16040 
     88000   2792.2821      900578.14      587.72577      901088.68      899976.17      900669.59      703.003       -1741.7204      1197.9725      5788.969       10365.967      16154.936      132045.94      40.417088      40.417088      80.834176          16040 
     89000   2807.5931      900092.36      595.25988      900514.92      898844.43      900917.73      3322.697      -1492.9092      52.834747      5820.7117      10393.107      16213.819      132089.59      40.421541      40.421541      80.843082          16040 
     90000   2787.6242      897562.8       602.79385      896755.7       897735.44      898197.25      4067.4689     -429.11899      691.23174      5779.3122      10291.582      16070.894      132126.61      40.425316      40.425316      80.850633          16040 
     91000   2820.0816      899341.45      610.33155      898783.21      899377.09      899864.06     -1118.8147     -390.11899     -1430.7109      5846.6029      10297.302      16143.905      132073.94      40.419944      40.419944      80.839889          16040 
     92000   2820.1764      908406.82      617.86511      906177.74      912436.12      906606.6      -2432.4916      1968.4216      2859.652       5846.7996      10414.52       16261.32       131808.84      40.392882      40.392882      80.785765          16040 
     93000   2797.9257      904638.7       625.39665      903026.13      906428.32      904461.66     -2500.6695      1030.1987     -1150.1512      5800.6692      10319.931      16120.6        131917.84      40.404014      40.404014      80.808028          16040 
     94000   2827.7097      899730.08      632.93228      902756.43      897701.79      898732.03     -2496.8079      2877.1601     -181.72801      5862.4176      10294.699      16157.117      132088.01      40.421379      40.421379      80.842759          16040 
     95000   2790.6739      901631.01      640.46496      901235.56      901256.81      902400.67      1605.0737      4214.0399      1442.2621      5785.6349      10248.669      16034.304      131980.13      40.410372      40.410372      80.820745          16040 
     96000   2782.2776      897862.92      647.99689      900345.49      896374.13      896869.12      706.57544      1552.5186     -997.24973      5768.2275      10344.494      16112.721      132104.21      40.423032      40.423032      80.846064          16040 
     97000   2794.8611      896802.8       655.5271       897792.68      895261.99      897353.73      1288.2353      359.80711      1738.1954      5794.3158      10239.997      16034.313      132151.52      40.427857      40.427857      80.855713          16040 
     98000   2812.2091      901220.89      663.05966      898768.77      904207.64      900686.26      3338.2074     -3686.609       2179.9998      5830.2816      10308.922      16139.204      132058.16      40.418335      40.418335      80.83667           16040 
     99000   2769.381       902571.55      670.58977      902577.48      904212.18      900925        -3165.9212      962.44748      2380.469       5741.4904      10356.213      16097.703      131951.41      40.40744       40.40744       80.814881          16040 
    100000   2815.6276      905450.67      678.12547      905703.57      905140.21      905508.24     -3806.937      -4782.9153      2937.5716      5837.3689      10371.676      16209.045      131905.54      40.402758      40.402758      80.805516          16040 
    101000   2792.194       906262.81      685.65456      906126.69      908141.46      904520.28      1134.2009      3407.5749      1491.4786      5788.7862      10342.162      16130.948      131867.4       40.398863      40.398863      80.797727          16040 
    102000   2791.7707      901084.71      693.18664      901500.8       900751.89      901001.43     -272.37585     -2215.2526      2960.1968      5787.9086      10377.207      16165.116      132013.49      40.413777      40.413777      80.827555          16040 
    103000   2778.5339      897152.13      700.71982      898605.44      897252.33      895598.63      433.89857      403.55847      1873.2624      5760.466       10255.912      16016.378      132074.02      40.419952      40.419952      80.839905          16040 
    104000   2821.6638      894273.11      708.25249      895208.55      893332.06      894278.72     -3196.6286     -1947.6409     -2999.0068      5849.8833      10219.498      16069.381      132204.1       40.433218      40.433218      80.866436          16040 
    105000   2801.1159      894227.82      715.78652      892643.27      895912.11      894128.08      1875.9513      4637.2279      2592.0874      5807.2832      10319.8        16127.083      132158.99      40.428619      40.428619      80.857237          16040 
    106000   2815.7973      902355.01      723.32302      903298.48      902166.89      901599.67     -2315.1039      3526.8937     -1629.28        5837.7207      10359.395      16197.116      132004.8       40.41289       40.41289       80.825781          16040 
    107000   2793.5799      902255.37      730.85929      902880.33      903011.2       900874.57     -7932.0323      2382.3106      1439.8061      5791.6595      10308.05       16099.71       131951.53      40.407453      40.407453      80.814905          16040 
    108000   2810.9032      901356.53      738.39133      901964.49      900845.11      901259.97     -2810.2902      1581.187      -160.70105      5827.5743      10344.428      16172.002      131988.5       40.411227      40.411227      80.822454          16040 
    109000   2791.4289      897197.6       745.92477      896501.54      898516.06      896575.21      1402.4688      461.09479      358.37484      5787.2001      10243.569      16030.769      132084.64      40.421036      40.421036      80.842073          16040 
    110000   2779.0511      891342.65      753.4568       892527.22      890987.97      890512.76     -1797.6323      6127.7818     -3820.4788      5761.5383      10195.249      15956.787      132226.92      40.435544      40.435544      80.871089          16040 
    111000   2816.7098      900329.77      760.99259      901786.68      901027.17      898175.45      1629.8729     -1554.1003      85.031507      5839.6125      10317.52       16157.133      132036.73      40.416148      40.416148      80.832296          16040 
    112000   2805.6931      901239.43      768.5264       901695.81      900551.88      901470.6      -2938.5063      51.66184      -1966.4885      5816.7726      10251.365      16068.138      131944.25      40.40671       40.40671       80.81342           16040 
    113000   2829.0168      902400.98      776.05822      902315.25      899899.22      904988.48     -384.36649      2587.4497     -3828.9508      5865.1274      10297.613      16162.74       131997.72      40.412167      40.412167      80.824335          16040 
    114000   2801.2629      898942.28      783.5914       898953.72      899500.41      898372.7      -2676.6109     -1463.4449     -3011.3759      5807.5879      10268.681      16076.269      132067.5       40.419288      40.419288      80.838576          16040 
    115000   2812.6671      903876.18      791.12575      904318.34      903697.44      903612.76     -1103.1951      1131.5452     -4149.1915      5831.2311      10415.934      16247.165      131979.13      40.41027       40.41027       80.820541          16040 
    116000   2794.8489      908140.69      798.66003      906793.97      909214.19      908413.91     -1275.6982     -3397.4401      1439.3713      5794.2905      10393.483      16187.773      131826.87      40.394724      40.394724      80.789448          16040 
    117000   2792.0627      900901.15      806.19361      901451.61      898811.48      902440.36     -257.96227     -2621.6622     -2120.0089      5788.5141      10256.241      16044.755      131988.02      40.411177      40.411177      80.822355          16040 
    118000   2808.3828      897643.73      813.72491      899640.9       898489.7       894800.61      1046.9713      2166.4633      1029.5463      5822.3489      10238.89       16061.239      132076.99      40.420256      40.420256      80.840512          16040 
    119000   2805.8805      899059.7       821.25815      898980.11      899463.71      898735.28     -2019.8614     -1041.6722      596.75165      5817.1611      10309.309      16126.47       132034.51      40.415921      40.415921      80.831843          16040 
    120000   2801.2286      902581.29      828.79319      904191.17      902224.94      901327.74     -2798.2903     -566.49398     -2358.103       5807.5169      10369.023      16176.54       131963.14      40.408638      40.408638      80.817277          16040 
    121000   2792.5349      897912.24      836.32588      896664.14      899984.47      897088.09      534.90578     -1248.6173     -1480.853       5789.4931      10327.587      16117.08       132063.81      40.418911      40.418911      80.837823          16040 
    122000   2778.5001      893148.37      843.85905      892723.06      892911.62      893810.43     -1702.4094     -1129.3544     -4589.785       5760.3961      10242.291      16002.687      132247.75      40.437668      40.437668      80.875336          16040 
    123000   2796.8067      898245.57      851.38912      899554.43      900385.36      894796.93      317.35883     -2142.1078      848.11197      5798.3493      10144.799      15943.149      132092.63      40.421851      40.421851      80.843702          16040 
    124000   2814.8352      901004.82      858.9192       901251.36      899279.28      902483.83     -2893.035      -1596.8732     -803.02467      5835.7261      10306.976      16142.703      132010.61      40.413483      40.413483      80.826966          16040 
    125000   2812.9705      900986.87      866.45124      900232.34      901354.78      901373.48      5.7298232      292.67149      828.45228      5831.8603      10281.338      16113.198      131990.74      40.411455      40.411455      80.82291           16040 
    126000   2805.5235      899576.89      873.9851       899743.42      899589.98      899397.27     -3893.6968     -5540.5335      412.55339      5816.421       10369.593      16186.014      132073.55      40.419905      40.419905      80.839809          16040 
    127000   2797.6054      895849.15      881.51645      894560.07      897396.17      895591.22      3691.832       1287.7833     -3318.3328      5800.0052      10253.88       16053.885      132127.51      40.425408      40.425408      80.850816          16040 
    128000   2818.3195      893695.94      889.0462       893142.92      894195.84      893749.08     -3118.0228      3159.0979     -7.1446234      5842.9497      10181.858      16024.808      132206.83      40.433497      40.433497      80.866993          16040 
    129000   2792.4215      899033.24      896.5766       899135.81      899655.91      898308.01     -2637.5341     -1692.4069     -812.31305      5789.2579      10277.764      16067.022      132047.74      40.417271      40.417271      80.834542          16040 
    130000   2826.3452      902738.42      904.10895      903806.17      903347.94      901061.15     -4881.8886      1610.8424     -1356.1218      5859.5887      10334.759      16194.348      132019.2       40.414359      40.414359      80.828719          16040 
    131000   2778.8112      901401.78      911.63923      899643.33      901511.07      903050.94      2386.4523      4739.6966     -5576.0781      5761.0411      10337.162      16098.203      132004.16      40.412825      40.412825      80.82565           16040 
    132000   2833.4139      899179.67      919.16861      900159.05      897665.59      899714.37     -127.20836     -3875.4511     -1663.5618      5874.2436      10326.191      16200.434      132062.29      40.418756      40.418756      80.837513          16040 
    133000   2779.5972      895514.73      926.70001      894468.45      896696.72      895379.03     -931.61238      2358.9153     -57.620449      5762.6706      10259.49       16022.161      132167.41      40.429477      40.429477      80.858955          16040 
    134000   2797.8265      894850.64      934.23029      894667.23      895807.61      894077.08     -2669.1545      3422.3221      524.12121      5800.4635      10175.199      15975.662      132213.34      40.434161      40.434161      80.868321          16040 
    135000   2772.259       899187.15      941.76116      898922.44      899167.61      899471.39      530.82322     -112.56139     -2987.3215      5747.457       10284.917      16032.374      132044.64      40.416955      40.416955      80.83391           16040 
    136000   2798.7722      903558.59      949.29283      902168.09      903243.46      905264.22      1665.2548      2449.2682      3159.8712      5802.4242      10312.304      16114.728      131937.05      40.405975      40.405975      80.811949          16040 
    137000   2830.6913      901617.38      956.82197      902741.19      902078.46      900032.5       4300.6959     -1904.1337     -79.921258      5868.5991      10326.014      16194.613      132016.77      40.414112      40.414112      80.828224          16040 
    138000   2796.8991      900696.84      964.35347      901139.61      899587.17      901363.75     -4312.9822      2883.4459      448.86228      5798.5409      10257.733      16056.274      132018.15      40.414252      40.414252      80.828505          16040 
    139000   2828.4547      902938.39      971.88349      901504.29      904249.19      903061.67      2441.235       2273.1254      2948.74        5863.9621      10317.625      16181.587      132027.17      40.415173      40.415173      80.830346          16040 
    140000   2770.0698      901221.57      979.41178      900349.2       899539.21      903776.29      699.07138     -3460.4389     -197.49651      5742.9183      10295.76       16038.678      132042.45      40.416732      40.416732      80.833463          16040 
    141000   2814.3834      895215.68      986.9407       893979.53      896095.06      895572.44     -125.1406       4021.6893      1415.9875      5834.7893      10178.525      16013.314      132209.74      40.433793      40.433793      80.867585          16040 
    142000   2778.9161      891393.12      994.4728       889407.01      894764.99      890007.38      3756.3566     -3192.2668     -2908.423       5761.2585      10133.875      15895.134      132229.28      40.435785      40.435785      80.871571          16040 
    143000   2795.1368      900539.9       1002.0044      898848.91      902152.84      900617.96      2984.3031      2436.5339     -4697.3614      5794.8873      10278.997      16073.884      132012.51      40.413676      40.413676      80.827353          16040 
    144000   2814.4067      902009.36      1009.5375      901047.89      903788.28      901191.89      334.53236      4012.9429     -461.68241      5834.8377      10284.46       16119.298      131974.12      40.409759      40.409759      80.819517          16040 
    145000   2794.5542      899844.61      1017.0683      900895.21      898993.66      899644.96      1828.2524     -970.67981      4497.5208      5793.6795      10151.089      15944.768      132011.58      40.413582      40.413582      80.827164          16040 
    146000   2800.8481      895467         1024.6         896808.96      894875.27      894716.77      3403.0728     -3003.4274      825.60762      5806.728       10225.058      16031.787      132120.24      40.424667      40.424667      80.849334          16040 
    147000   2773.8422      897088         1032.1321      896860.06      898024.33      896379.6      -218.252       -1336.7235     -1870.5857      5750.7393      10183.069      15933.808      132095.25      40.422118      40.422118      80.844236          16040 
    148000   2800.1877      897680.44      1039.6633      896151.86      899401.91      897487.56     -993.8608      -7432.2815     -1762.0947      5805.3589      10247.825      16053.184      132052.47      40.417754      40.417754      80.835508          16040 
    149000   2777.8713      907017.29      1047.194       907747.6       906511.6       906792.68      1548.4557     -2727.1596     -1510.3615      5759.0923      10328.354      16087.447      131850.88      40.397176      40.397176      80.794352          16040 
    150000   2811.6765      904130.62      1054.7267      903253.76      904371.86      904766.25      3297.6397      4470.1683      2391.2733      5829.1774      10340.608      16169.785      131957.05      40.408017      40.408017      80.816034          16040 
    151000   2779.3656      900906.13      1062.2587      899448.23      901682.42      901587.73      1363.6802      721.53397     -3833.5918      5762.1903      10311.977      16074.167      132020.88      40.414531      40.414531      80.829062          16040 
    152000   2801.2744      895381.19      1069.7919      894832.04      895192.52      896119        -3367.2277      395.24305     -1389.4055      5807.6118      10229.477      16037.089      132203.8       40.433187      40.433187      80.866375          16040 
    153000   2795.8429      895109         1077.3211      894723.26      893473.31      897130.43      2351.7867      585.6299      -3657.102       5796.3513      10156.682      15953.033      132168.19      40.429557      40.429557      80.859114          16040 
    154000   2805.8245      896115.87      1084.8525      898386.09      891884.93      898076.6       1777.0205     -2700.2253      1744.3925      5817.0451      10241.88       16058.925      132169.64      40.429705      40.429705      80.85941           16040 
    155000   2778.0355      902773.07      1092.387       902532.36      902259.45      903527.38      1394.065      -3070.3344     -256.85451      5759.4328      10292.447      16051.88       131970.56      40.409396      40.409396      80.818792          16040 
    156000   2786.9969      900876.9       1099.9186      900852.02      901581.76      900196.93      204.17445     -758.49446     -2294.4756      5778.0116      10296.684      16074.695      132014.92      40.413922      40.413922      80.827845          16040 
    157000   2790.4359      897360.4       1107.4511      897049.01      895396.63      899635.56     -714.96166      2590.5753      149.12423      5785.1414      10229.908      16015.049      132135.94      40.426268      40.426268      80.852536          16040 
    158000   2793.9752      896439.65      1114.9838      895633.84      897719.21      895965.91     -1631.2215      46.765011     -3975.5236      5792.479       10154.609      15947.088      132140.25      40.426708      40.426708      80.853417          16040 
    159000   2796.3012      898129.1       1122.5154      896893.1       898603.07      898891.12     -4052.0272     -2266.1296      976.45467      5797.3013      10271.763      16069.065      132086.92      40.421268      40.421268      80.842537          16040 
    160000   2817.6461      905977.35      1130.0466      907128.31      904466.71      906337.04      2009.0988      6.4461811      2296.4862      5841.5537      10336.546      16178.1        131895.34      40.401716      40.401716      80.803433          16040 
    161000   2767.0184      903417.38      1137.5773      902767.53      905156.63      902327.97     -3060.6069     -4646.8101     -1084.3694      5736.5921      10326.458      16063.05       131937.26      40.405997      40.405997      80.811993          16040 
    162000   2764.4375      901174.96      1145.1074      901308.38      900820.54      901395.96     -293.03831     -382.81318     -1982.013       5731.2415      10213.527      15944.768      131995.3       40.41192       40.41192       80.82384           16040 
    163000   2818.1597      900859.35      1152.64        899140.79      902047.69      901389.58      1030.0891     -2967.806      -2421.1846      5842.6185      10229.083      16071.701      132038.66      40.416345      40.416345      80.83269           16040 
    164000   2793.9581      898045.17      1160.1703      896425.87      898491.11      899218.53      1326.7472     -3757.0402     -1183.4452      5792.4436      10239.925      16032.369      132121.01      40.424746      40.424746      80.849492          16040 
    165000   2805.038       897131.21      1167.7058      894752.68      897706.26      898934.68      2493.1952     -2294.3693     -566.02914      5815.4146      10236.443      16051.858      132170.45      40.429787      40.429787      80.859574          16040 
    166000   2796.1349      896321.81      1175.242       894900.03      897058.34      897007.06      988.05816      4126.1761      913.21093      5796.9566      10203.452      16000.408      132123.22      40.424971      40.424971      80.849943          16040 
    167000   2806.3571      903704.67      1182.7772      903745.72      902918.32      904449.98      162.03305     -4027.6565     -1437.46        5818.1492      10301.049      16119.198      131922.68      40.404508      40.404508      80.809016          16040 
    168000   2766.1284      905426.66      1190.3083      904497.75      905225.65      906556.57     -2333.5898     -649.26514      3.4068532      5734.7469      10335.313      16070.06       131887.82      40.400949      40.400949      80.801898          16040 
    169000   2823.6284      901013.95      1197.8406      901230.6       899711.71      902099.54     -1926.3199      677.01405      822.35724      5853.9563      10247.267      16101.224      132041.81      40.416667      40.416667      80.833334          16040 
    170000   2809.6856      899882.1       1205.374       899504.05      899189.2       900953.06     -267.90168      2806.3452     -1005.573       5825.0499      10198.106      16023.156      132073.32      40.419882      40.419882      80.839763          16040 
    171000   2817.3692      897881.48      1212.9068      898669.43      899328.36      895646.66      86.998932     -1076.207       4643.8068      5840.9795      10216.957      16057.937      132050.11      40.417513      40.417513      80.835026          16040 
    172000   2815.8513      903779.15      1220.4415      903038.18      905052.18      903247.09     -1916.6369      4597.7135      4080.152       5837.8328      10281.119      16118.952      131939.14      40.406188      40.406188      80.812376          16040 
    173000   2779.2666      903758.8       1227.9724      904038.05      904562.13      902676.23     -2568.2994     -469.11746      3372.2472      5761.9851      10336.764      16098.749      131937.49      40.40602       40.40602       80.812039          16040 
    174000   2811.2024      897149.44      1235.5058      894205.52      900058.45      897184.34     -1480.1939      2563.7119     -2894.7465      5828.1945      10093.8        15921.995      132108.52      40.423472      40.423472      80.846944          16040 
    175000   2802.498       895308.96      1243.0353      893745.91      894453.59      897727.37      1636.0612      482.7008       917.76724      5810.1486      10208.835      16018.983      132138.77      40.426557      40.426557      80.853114          16040 
    176000   2785.7117      898332.36      1250.5657      897998.63      899425.41      897573.05     -1384.209      -3025.2439     -447.45322      5775.3471      10172.459      15947.806      132048.99      40.417399      40.417399      80.834798          16040 
    177000   2786.3264      900370.12      1258.0955      899596.09      900246.93      901267.33      523.40329     -2731.1902     -1823.9648      5776.6216      10280.706      16057.328      132038.1       40.416288      40.416288      80.832575          16040 
    178000   2809.8492      898250.84      1265.6226      896666.83      899494.79      898590.9       2269.9513     -2584.4395      3163.5839      5825.389       10178.714      16004.103      132095.2       40.422113      40.422113      80.844227          16040 
    179000   2811.4859      891762.55      1273.1548      890366.28      891620.35      893301.02     -3497.186       89.322976     -68.090212      5828.7824      10130.723      15959.505      132262.51      40.439172      40.439172      80.878343          16040 
    180000   2803.0725      897839.64      1280.6825      898556.65      895597.36      899364.92      629.67884      1603.492      -2610.7385      5811.3395      10182.766      15994.106      132085.55      40.421129      40.421129      80.842259          16040 
    181000   2849.7431      905097.42      1288.213       903340.9       905720.34      906231.02     -5435.7808     -2266.403       1279.7415      5908.0974      10270.85       16178.947      131932.63      40.405523      40.405523      80.811047          16040 
    182000   2792.9097      902904.01      1295.7407      903626.75      902185.02      902900.24     -279.21797     -390.80476     -745.12444      5790.2701      10297.554      16087.824      131947.82      40.407074      40.407074      80.814148          16040 
    183000   2833.5491      902070.57      1303.2754      902055.89      901626.02      902529.81      4384.2511     -154.20325     -217.80778      5874.5238      10229.781      16104.304      132006.91      40.413106      40.413106      80.826212          16040 
    184000   2776.2771      900343.11      1310.8077      898862.94      902037.45      900128.93     -1878.8217      6677.4897      4758.5285      5755.7874      10209.841      15965.629      132019.35      40.414375      40.414375      80.828749          16040 
    185000   2769.598       900581.93      1318.3437      897937.9       901339.68      902468.22     -2720.2196      1923.1661      801.55469      5741.9401      10274.178      16016.118      132038.38      40.416317      40.416317      80.832634          16040 
    186000   2794.8971      896337.16      1325.8765      897257.02      894621.01      897133.45      423.02292      2080.237      -5489.943       5794.3903      10226.178      16020.569      132140.37      40.42672       40.42672       80.85344           16040 
    187000   2809.5816      891877.52      1333.4122      891545.72      889947.66      894139.18      3576.8988     -2350.9568      539.19552      5824.8344      10030.553      15855.388      132260.79      40.438997      40.438997      80.877994          16040 
    188000   2803.4489      898999.79      1340.9467      898108.79      899932.77      898957.8       3749.5173     -3256.6308     -2790.2506      5812.12        10215.153      16027.273      132096.84      40.42228       40.42228       80.844561          16040 
    189000   2774.8185      903749.84      1348.4804      904519.95      903870.32      902859.25     -4025.7947     -945.87632     -4636.9181      5752.7633      10239.23       15991.993      131961.87      40.408508      40.408508      80.817017          16040 
    190000   2818.6535      902550.87      1356.0136      905145.51      901832.46      900674.63     -1358.5541      2914.07        3034.5749      5843.6422      10238.844      16082.486      132018.44      40.414282      40.414282      80.828564          16040 
    191000   2807.5498      901830.91      1363.5475      902926.6       900122.3       902443.84      787.81355      2615.8981      593.21572      5820.622       10200.544      16021.166      132019.92      40.414432      40.414432      80.828865          16040 
    192000   2818.8252      901129.4       1371.0782      901356.38      902268.44      899763.37     -360.71032      1709.9561     -2251.4732      5843.9981      10292.289      16136.287      132045.81      40.417075      40.417075      80.834149          16040 
    193000   2791.5307      899878.73      1378.6131      900356.44      899976.56      899303.19     -2285.1843     -39.763261     -2713.1242      5787.4112      10225.765      16013.176      132074.07      40.419958      40.419958      80.839916          16040 
    194000   2824.5009      891799.21      1386.1474      890760.4       892525.31      892111.93      1741.6649     -4454.1839      805.89787      5855.7651      10060.777      15916.542      132285.91      40.441557      40.441557      80.883114          16040 
    195000   2788.9717      896259.61      1393.6831      896823.13      895048.85      896906.86      2024.204      -1420.5351      1827.7056      5782.1058      10156.137      15938.243      132120.42      40.424686      40.424686      80.849371          16040 
    196000   2819.4949      902855.29      1401.2188      904518.25      901041.46      903006.17     -1952.7598     -607.94956      2803.1434      5845.3866      10243.601      16088.988      131966.57      40.408989      40.408989      80.817978          16040 
    197000   2787.7559      901387.5       1408.7526      901568.21      901273.94      901320.34      1095.1271     -1331.5541     -2216.1464      5779.5851      10231.546      16011.131      131972.6       40.409604      40.409604      80.819208          16040 
    198000   2801.0398      903193.88      1416.2859      902030.5       903427.47      904123.67      2251.6976      66.272578     -1442.9674      5807.1255      10364.238      16171.363      131946.28      40.406917      40.406917      80.813834          16040 
    199000   2782.5493      900040.55      1423.8218      900384.28      901358.09      898379.29      160.76169      1976.4976     -686.34356      5768.7909      10239.825      16008.616      132064.37      40.418969      40.418969      80.837937          16040 
    200000   2813.4618      896102.22      1431.3601      896698.06      893862.92      897745.69      1963.8417      3422.2877     -2281.8543      5832.8788      10211.544      16044.423      132191.27      40.43191       40.43191       80.86382           16040 
    201000   2792.1016      898364.39      1438.8909      896181.39      898495.9       900415.89      318.13991     -252.60509      2489.4234      5788.5948      10165.305      15953.9        132103.64      40.422974      40.422974      80.845949          16040 
    202000   2812.9015      901276.73      1446.4208      901489.74      901508.71      900831.76      2888.6065      2506.1775     -1827.552       5831.7171      10232.18       16063.897      132015.34      40.413966      40.413966      80.827932          16040 
    203000   2802.7508      905381.57      1453.9539      905998.87      905540.53      904605.31      941.8089      -2939.5261      1957.444       5810.6728      10284.491      16095.164      131909.21      40.403132      40.403132      80.806265          16040 
    204000   2780.075       906606.98      1461.4857      908245.87      905647.8       905927.28      2915.1071     -967.04959      1191.8291      5763.6612      10346.521      16110.182      131915.47      40.403772      40.403772      80.807543          16040 
    205000   2813.83        900530.25      1469.018       902256.43      899620.75      899713.55     -2760.5927      254.08082     -2110.7294      5833.6422      10170.498      16004.14       132061.81      40.418707      40.418707      80.837414          16040 
    206000   2795.9867      896970.92      1476.5535      895884.69      896777.92      898250.15     -843.17745     -1046.2796      14.099655      5796.6492      10221.193      16017.842      132168.61      40.4296        40.4296        80.8592            16040 
    207000   2793.3679      893083.74      1484.0827      891080.32      894052.17      894118.73      1959.1965     -3864.8986     -416.86075      5791.22        10059.741      15850.961      132261.27      40.439045      40.439045      80.878091          16040 
    208000   2810.4063      898298.43      1491.6137      897518.4       896044.37      901332.51     -3784.0672     -2124.9406     -2348.7299      5826.544       10167.098      15993.642      132133.7       40.42604       40.42604       80.85208           16040 
    209000   2775.5762      902160.6       1499.1476      903854.62      899991.21      902635.96     -521.26608      1240.3485     -296.33246      5754.3341      10296.41       16050.744      131975.36      40.409885      40.409885      80.819771          16040 
    210000   2779.0045      904150.48      1506.6805      903158.62      904561.33      904731.48      1058.9518      2705.4323      2740.8893      5761.4418      10297.607      16059.049      131897.37      40.401924      40.401924      80.803847          16040 
    211000   2802.5056      901889.22      1514.2131      902499.01      900120.36      903048.28      2299.8265     -4396.4896      1523.1939      5810.1642      10271.684      16081.848      132013.77      40.413806      40.413806      80.827612          16040 
    212000   2787.3589      897935.8       1521.7468      899793.29      896652.2       897361.9       2941.7308     -1016.6471     -1187.2592      5778.7621      10219.294      15998.056      132069.95      40.419538      40.419538      80.839076          16040 
    213000   2821.2954      894355.32      1529.2808      894918.64      894036.18      894111.13      1134.4291      948.47397      606.85034      5849.1194      10111.299      15960.419      132181.3       40.430894      40.430894      80.861788          16040 
    214000   2785.7894      895016.41      1536.816       894263.67      896712.78      894072.79     -1453.6706      1271.9097      3142.1118      5775.5083      10176.543      15952.052      132187.67      40.431543      40.431543      80.863086          16040 
    215000   2770.0731      899335.37      1544.3459      900074.46      899104.31      898827.33     -3316.7721     -1077.4031      893.09447      5742.9251      10236.499      15979.424      132017.49      40.414185      40.414185      80.828369          16040 
    216000   2784.0033      904548.37      1551.8732      903547.13      906059.97      904038         2120.5304      2044.1036      2261.9086      5771.8053      10261.984      16033.789      131907.66      40.402975      40.402975      80.80595           16040 
    217000   2819.2165      904897.11      1559.406       905677.6       905311         903702.74      126.55315      532.34226      1791.9034      5844.8095      10338.207      16183.016      131948.32      40.407125      40.407125      80.814251          16040 
    218000   2823.2213      901696.3       1566.9373      899655.07      903849.77      901584.06      184.92015      2663.3716     -1040.8688      5853.1122      10213.63       16066.742      131987.53      40.411127      40.411127      80.822254          16040 
    219000   2785.0837      898416.73      1574.4686      897379.26      901078.59      896792.33     -3013.1001      1493.1451     -2062.0577      5774.0451      10192.161      15966.206      132109.97      40.423619      40.423619      80.847239          16040 
    220000   2791.889       895716.38      1582           896244.72      896702.06      894202.35     -2204.7281      674.74525      365.48043      5788.1539      10238.101      16026.255      132124.09      40.42506       40.42506       80.85012           16040 
    221000   2803.2628      897547.95      1589.5351      896855.47      896680.81      899107.58      217.85987     -3703.2506      1544.8913      5811.7342      10138.905      15950.64       132124.62      40.425114      40.425114      80.850228          16040 
    222000   2798.6427      900809.15      1597.0708      901786         900106.75      900534.69      477.68104     -2430.6776      3021.9611      5802.1558      10259.636      16061.792      132020.48      40.41449       40.41449       80.828981          16040 
    223000   2742.466       906047.57      1604.6045      906045.61      905788.57      906308.51     -2353.6926     -1001.082      -907.46622      5685.69        10353.843      16039.533      131844.25      40.3965        40.3965        80.792999          16040 
    224000   2798.8768      901754.58      1612.1372      902058.98      902107.08      901097.67      4806.26       -358.44116      4986.6705      5802.641       10255.555      16058.196      132016.1       40.414043      40.414043      80.828086          16040 
    225000   2795.0641      898606.71      1619.6715      897631.27      899566.3       898622.55      3474.5576     -2085.4418     -2605.1397      5794.7366      10179.383      15974.12       132073.1       40.419859      40.419859      80.839718          16040 
    226000   2794.5338      898884.27      1627.2028      899513.36      899946.18      897193.27      2378.5199     -1494.2677      427.07065      5793.6373      10283.507      16077.145      132072.38      40.419786      40.419786      80.839572          16040 
    227000   2796.117       903108.84      1634.7357      904147.26      901827.83      903351.43     -5409.3481      136.87997     -2235.5798      5796.9195      10263.169      16060.089      131958.51      40.408165      40.408165      80.816331          16040 
    228000   2791.4456      905525.83      1642.2686      907052.36      904483.76      905041.37     -702.98823     -928.0337      -2322.902       5787.2347      10330.551      16117.786      131926.06      40.404853      40.404853      80.809707          16040 
    229000   2817.9256      903511.26      1649.801       904113.34      905863.59      900556.85     -401.28632     -3832.6573     -6603.1296      5842.1331      10254.452      16096.585      131940.32      40.406309      40.406309      80.812617          16040 
    230000   2752.1637      896812.27      1657.3341      897240.43      894690.65      898505.74     -2593.9407      1959.558       770.68953      5705.7954      10176.577      15882.372      132132.22      40.425889      40.425889      80.851777          16040 
    231000   2807.7285      893587.62      1664.8662      893783.32      893787.38      893192.17     -1327.0594      1389.978      -3443.8126      5820.9925      10159.756      15980.748      132228.61      40.435717      40.435717      80.871433          16040 
    232000   2761.1166      897747         1672.398       897059.71      897484.01      898697.28     -329.45608      3762.5499      1919.5482      5724.3564      10210.05       15934.406      132066.72      40.419208      40.419208      80.838415          16040 
    233000   2826.7433      899259.45      1679.9312      900995.1       900371.13      896412.11     -2596.1387     -2143.1064     -2703.7849      5860.4139      10192.955      16053.369      132058.15      40.418333      40.418333      80.836667          16040 
    234000   2788.8308      901085.72      1687.4632      900605.89      900464.33      902186.95      2205.1955      2696.7483     -2267.9642      5781.8137      10201.624      15983.438      132000.41      40.412442      40.412442      80.824884          16040 
    235000   2807.2399      902862.26      1694.9939      901175.19      902443.28      904968.3      -1677.62       -902.55674      139.05351      5819.9794      10332.811      16152.79       131980.46      40.410406      40.410406      80.820812          16040 
    236000   2800.7064      895611.79      1702.5261      896172.03      895759.82      894903.51     -2661.3505     -1823.3958      763.84793      5806.4341      10222.596      16029.03       132173.44      40.430092      40.430092      80.860184          16040 
    237000   2806.3743      892808.49      1710.0571      893582.63      892878.99      891963.85      1632.471      -3468.5192      835.98137      5818.185       10087.471      15905.656      132252.74      40.438176      40.438176      80.876353          16040 
    238000   2802.3619      895598.37      1717.5941      893419.33      896464.26      896911.51      8630.083      -3914.8675      5324.9598      5809.8665      10214.001      16023.867      132132.78      40.425946      40.425946      80.851893          16040 
    239000   2790.3282      897923.4       1725.1294      900452.82      896421.86      896895.53     -681.84302     -179.45875     -690.69044      5784.918       10263.802      16048.72       132087.62      40.42134       40.42134       80.84268           16040 
    240000   2778.4368      898718.27      1732.6622      898423.63      899728.13      898003.05     -818.13861     -508.83992      852.92123      5760.2649      10223.283      15983.548      132068.38      40.419377      40.419377      80.838755          16040 
    241000   2805.7497      900590.1       1740.1969      900013.91      900819.29      900937.1      -477.49183     -2122.0022     -1425.3159      5816.89        10285.091      16101.981      132006.22      40.413035      40.413035      80.826071          16040 
    242000   2772.9797      906283.01      1747.7306      906404.34      906771.21      905673.48     -2147.6456     -2209.5187     -315.82541      5748.9511      10348.778      16097.729      131831.83      40.395231      40.395231      80.790461          16040 
    243000   2823.9574      903972.63      1755.2684      903516.9       904253.2       904147.79      1081.4705      2265.9371     -2191.6169      5854.6382      10317.008      16171.646      131942.73      40.406554      40.406554      80.813109          16040 
    244000   2792.0778      896772.55      1762.7998      895500.84      897297.02      897519.8       269.44031     -1026.374      -1803.4493      5788.5454      10153.998      15942.544      132116.69      40.424305      40.424305      80.848611          16040 
    245000   2791.6465      899981.09      1770.3361      899437.67      899967.76      900537.83     -5509.9259     -314.71704      3100.4375      5787.6513      10256.688      16044.339      132101.05      40.42271       40.42271       80.845419          16040 
    246000   2775.6148      900204.36      1777.869       897954.62      901431.89      901226.56     -2489.492      -3018.2585     -778.23872      5754.4143      10183.752      15938.166      132069.59      40.4195        40.4195        80.839001          16040 
    247000   2815.5085      900484.75      1785.4027      901126.57      900987.06      899340.61     -2308.4799      245.52532      1409.6447      5837.1219      10268.038      16105.16       132088.49      40.421429      40.421429      80.842858          16040 
    248000   2780.6764      902340.23      1792.9342      902672.78      902159.32      902188.59      3425.9566      1680.8168     -3352.447       5764.908       10260.549      16025.457      131987.33      40.411107      40.411107      80.822214          16040 
    249000   2803.9692      910119.33      1800.4695      909838.68      908861.62      911657.67      3375.3965      1295.4692     -1323.6201      5813.1986      10412.091      16225.29       131841.5       40.396218      40.396218      80.792436          16040 
    250000   2796.5509      904159.96      1808.0008      905984.15      903235.25      903260.46     -3367.5938     -1551.2404     -3763.7034      5797.8191      10287.484      16085.303      131974.14      40.409761      40.409761      80.819523          16040 
    251000   2791.0488      898261.36      1815.5338      898051.9       898113.44      898618.75      3095.8607     -6096.1815     -1574.8163      5786.4121      10192.993      15979.405      132110.71      40.423695      40.423695      80.84739           16040 
    252000   2807.769       896301.69      1823.0649      896282.4       896191.59      896431.09      1673.5844     -181.2205       2286.3421      5821.0763      10220.708      16041.785      132148.52      40.427552      40.427552      80.855103          16040 
    253000   2783.0589      898876.4       1830.5965      898286.96      898354.77      899987.48      428.43514      4168.3879      1036.9343      5769.8473      10169.919      15939.766      132073.73      40.419923      40.419923      80.839845          16040 
    254000   2804.7111      905886.64      1838.1309      905717.79      906400.98      905541.16     -5883.16       -7150.8984      3498.8761      5814.7369      10277.448      16092.185      131913.46      40.403566      40.403566      80.807132          16040 
    255000   2807.9741      906554.66      1845.6594      907594.52      907208.91      904860.56     -730.86014     -1399.0383     -2935.3898      5821.5016      10279.565      16101.067      131891.56      40.401331      40.401331      80.802662          16040 
    256000   2803.6612      900436.18      1853.1886      902243.98      899621.26      899443.29     -418.49191      1483.6294     -340.84073      5812.5602      10196.391      16008.951      132021.33      40.414577      40.414577      80.829154          16040 
    257000   2810.0277      901240.83      1860.7199      901144.2       899335.25      903243.04      3768.2694     -1633.8341     -594.86183      5825.7593      10184.1        16009.859      132053.17      40.417826      40.417826      80.835651          16040 
    258000   2788.2749      903140.74      1868.2549      902855.86      904110.51      902455.84      2521.7295      1211.4308      960.5912       5780.6611      10219.258      15999.919      131974         40.409747      40.409747      80.819494          16040 
    259000   2793.4208      896982.41      1875.7848      898037.8       896547.81      896361.62     -4391.3593      219.47173     -2629.1467      5791.3296      10215.709      16007.039      132147.23      40.42742       40.42742       80.854839          16040 
    260000   2790.6896      889802.35      1883.3144      890215.11      889932.01      889259.95     -3314.955       626.92619      679.64819      5785.6673      10076.197      15861.864      132270.76      40.440013      40.440013      80.880026          16040 
    261000   2814.7833      892624.37      1890.8487      891918.95      894032.29      891921.87     -3510.8643      1086.8184     -252.31865      5835.6184      10068.023      15903.642      132207.3       40.433544      40.433544      80.867088          16040 
    262000   2818.6542      898572.19      1898.3818      900334         896708.85      898673.7       1632.1774     -923.78398      247.0425       5843.6436      10202.674      16046.318      132113.33      40.423962      40.423962      80.847924          16040 
    263000   2821.2135      902097.16      1905.9117      902938.72      901723         901629.76     -2523.1249      2686.0679     -2173.6192      5848.9496      10226.621      16075.57       132013.97      40.413825      40.413825      80.827651          16040 
    264000   2793.6375      901571.04      1913.4414      899309.06      902181.2       903222.87      3629.297      -1968.4623     -2630.0288      5791.7789      10189.16       15980.939      132019.84      40.414424      40.414424      80.828849          16040 
    265000   2820.3953      896893.81      1920.9722      894584.73      899890.69      896206.02     -1835.5431      4923.8055     -185.05998      5847.2533      10192.736      16039.989      132159.93      40.428715      40.428715      80.85743           16040 
    266000   2797.999       892369.68      1928.5041      891010.26      894110.51      891988.28      518.84998     -1475.0061     -3620.1375      5800.8213      10123.619      15924.44       132258.24      40.438737      40.438737      80.877473          16040 
    267000   2806.6554      895119.5       1936.0366      893676.38      894024.78      897657.33     -3887.7558      2160.6639      2709.4017      5818.7676      10114.119      15932.887      132165.97      40.429331      40.429331      80.858661          16040 
    268000   2796.0065      901407.76      1943.5667      902587.75      901286.54      900348.99      1295.2714      2861.1433      1746.0242      5796.6903      10190.239      15986.929      132014.52      40.413882      40.413882      80.827765          16040 
    269000   2813.4544      903591.28      1951.0978      902133.65      903537.65      905102.54      925.66324      605.68778     -2240.138       5832.8634      10264.181      16097.044      131950.35      40.407333      40.407333      80.814666          16040 
    270000   2840.568       903251.51      1958.6325      902912.22      904723.38      902118.94     -6037.8853     -2208.3433     -656.80805      5889.0755      10276.459      16165.535      131991.3       40.411512      40.411512      80.823024          16040 
    271000   2817.5403      901508.97      1966.1648      900032.16      902991.92      901502.81     -439.38373      274.65282      195.8604       5841.3344      10194.604      16035.939      131975.87      40.409938      40.409938      80.819876          16040 
    272000   2845.6525      902985.06      1973.6969      901516.74      903922.31      903516.12      1169.8414     -2795.3141     -1575.0125      5899.6167      10263.13       16162.747      132032.48      40.415715      40.415715      80.83143           16040 
    273000   2783.7469      896551.73      1981.2303      893519.67      901530.44      894605.09     -1826.8868      381.27414      533.96605      5771.2737      10147.165      15918.439      132103.41      40.42295       40.42295       80.845901          16040 
    274000   2818.3694      894437.02      1988.7589      895303.87      893797.64      894209.55      2612.303       2053.8733      1265.5735      5843.0533      10135.004      15978.058      132230.22      40.435881      40.435881      80.871761          16040 
    275000   2741.2942      897559.23      1996.2877      897103.8       897212.45      898361.43      1632.1537      505.96551      1097.8456      5683.2606      10190.548      15873.808      132078.94      40.420454      40.420454      80.840909          16040 
    276000   2818.5395      904862.59      2003.816       905578.59      903339.65      905669.54     -857.20692      1904.7762      1931.7614      5843.4059      10240.534      16083.94       131926.98      40.404947      40.404947      80.809894          16040 
    277000   2798.8093      904809.5       2011.3455      903445.33      904133.15      906850.01      4312.5407      8686.8602     -1555.7582      5802.5012      10217.638      16020.14       131912.16      40.403434      40.403434      80.806869          16040 
    278000   2808.7305      900931.99      2018.8764      901365.07      900303.97      901126.93     -1615.7093     -2516.1043     -301.79488      5823.0699      10289.886      16112.956      132041.14      40.416598      40.416598      80.833196          16040 
    279000   2779.7187      893908.6       2026.4087      895141.58      893791.01      892793.22      3183.7031     -1593.1264     -1127.1495      5762.9224      10149.51       15912.433      132162.87      40.429015      40.429015      80.858029          16040 
    280000   2774.6988      893713.06      2033.944       896138.89      892808.37      892191.92     -1357.1863     -2540.6129     -1353.6168      5752.5151      10083.5        15836.016      132188.39      40.431617      40.431617      80.863233          16040 
    281000   2802.0532      899295.15      2041.4797      898304.35      899125.18      900455.93     -908.69544      605.85522     -1532.5265      5809.2264      10195.947      16005.173      132093.5       40.42194       40.42194       80.84388           16040 
    282000   2840.8361      903107.38      2049.0134      903486.71      901477         904358.44      437.78821     -3531.7242      3174.7097      5889.6313      10200.613      16090.244      131988.33      40.41121       40.41121       80.822419          16040 
    283000   2787.5803      903477.82      2056.5472      901973.85      904289.54      904170.07     -3515.9544      3539.1056     -3634.4895      5779.2212      10250.509      16029.73       131954.4       40.407746      40.407746      80.815492          16040 
    284000   2792.7936      902697.76      2064.0791      901594.25      903256.69      903242.33     -852.96576     -3290.3219      622.67723      5790.0293      10209.189      15999.218      131966.59      40.40899       40.40899       80.81798           16040 
    285000   2796.4811      897995.2       2071.6131      900111.01      896047.3       897827.3      -180.56109     -889.56089      820.25131      5797.6743      10174.207      15971.882      132129.32      40.425593      40.425593      80.851186          16040 
    286000   2768.8897      892433.36      2079.1473      891799.75      892178.07      893322.25     -4766.801      -2733.62        863.70934      5740.4717      10143.822      15884.294      132246.75      40.437566      40.437566      80.875132          16040 
[...]
   3930000   3457.1058      906710.1       7268.5491      926650.39      1002992        790487.91     -34494.065      45351.656     -15870.672      7167.2836      19343.596      26510.88       115163.2       38.905917      38.905917      76.082082          16040 
   3931000   3414.0509      902452.54      7276.4094      924835.48      998188.72      784333.41     -36434.424      44392.281     -19174.473      7078.0222      19370.962      26448.984      115271.86      38.918151      38.918151      76.106004          16040 
   3932000   3448.0391      893421.34      7284.2674      917112.46      987938.16      775213.4      -35219.166      41646.774     -17856.362      7148.4866      19191.041      26339.527      115465.44      38.939923      38.939923      76.148582          16040 
   3933000   3417.0335      905853.2       7292.1324      929483.22      1000114.8      787961.53     -33718.337      43088.189     -16324.998      7084.2057      19404.132      26488.338      115199.26      38.909979      38.909979      76.090024          16040 
   3934000   3426.3918      901376.66      7299.9923      924935.37      996481.15      782713.48     -36758.382      44094.258     -17251.031      7103.6074      19311.368      26414.976      115329.13      38.924595      38.924595      76.118606          16040 
   3935000   3454.9919      900184.46      7307.8527      920415.21      998199.85      781938.31     -33319.421      44323.312     -14278.68       7162.9012      19289.845      26452.746      115261.3       38.916962      38.916962      76.10368           16040 
   3936000   3422.7953      893176.13      7315.7212      914685.13      990323.33      774519.93     -33020.522      41443.664     -17009.702      7096.151       19243.092      26339.243      115463.62      38.939719      38.939719      76.148182          16040 
   3937000   3444.7202      909432.14      7323.5899      932845.43      1005428.1      790022.91     -36563.155      44078.528     -15655.1        7141.6058      19394.11       26535.716      115112.73      38.900233      38.900233      76.070966          16040 
   3938000   3452.9503      898483.93      7331.4517      923257.12      996825.68      775368.98     -34951.578      42850.016     -17293.061      7158.6685      19262.824      26421.492      115315.23      38.92303       38.92303       76.115546          16040 
   3939000   3434.1082      897938.37      7339.3169      918618.66      994247.68      780948.76     -32761.863      43486.746     -17108.161      7119.605       19270.815      26390.42       115369.85      38.929175      38.929175      76.127563          16040 
   3940000   3432.9247      908028.72      7347.1859      929052.66      1006148.2      788885.26     -34143.935      42662.466     -19455.484      7117.1514      19385.701      26502.852      115169.89      38.906671      38.906671      76.083556          16040 
   3941000   3462.5359      893356.38      7355.0491      914203.15      988992.78      776873.2      -31367.855      39824.624     -16459.202      7178.5415      19173.288      26351.83       115438.58      38.936904      38.936904      76.142678          16040 
   3942000   3447.8414      904408.3       7362.9146      929986.41      999572.48      783666        -38068.821      41921.097     -16378.596      7148.0768      19330.524      26478.6        115211.97      38.911409      38.911409      76.092821          16040 
   3943000   3459.3689      904175.04      7370.7752      929802.65      999895.02      782827.44     -37758.567      43096.483     -18968.636      7171.9757      19307.146      26479.121      115209.21      38.911098      38.911098      76.092213          16040 
   3944000   3434.8446      894822.55      7378.6401      918281.22      990014.29      776172.13     -36090.077      39776.513     -17897.674      7121.1318      19256.427      26377.559      115390.49      38.931497      38.931497      76.132103          16040 
   3945000   3427.3372      901008.84      7386.5049      927081.97      995687.86      780256.68     -36144.322      44319.066     -16086.184      7105.5673      19331.234      26436.801      115284.16      38.919535      38.919535      76.108711          16040 
   3946000   3439.9391      905684.12      7394.3696      930534.93      1000735.5      785781.91     -34471.345      39190.719     -19440.231      7131.6936      19367.509      26499.202      115172.25      38.906937      38.906937      76.084076          16040 
   3947000   3457.2486      890415.85      7402.2376      911782.63      986593.9       772871.03     -32598.483      42018.671     -21599.835      7167.5798      19133.6        26301.18       115524.72      38.946586      38.946586      76.161612          16040 
   3948000   3437.6823      903752.44      7410.1037      924934.92      1000222.9      786099.47     -33744.417      40403.818     -16181.72       7127.0148      19319.653      26446.668      115265.61      38.917447      38.917447      76.104628          16040 
   3949000   3456.3387      898328.7       7417.9653      919637.77      994436.84      780911.5      -34985.337      42483.783     -15097.028      7165.6933      19244.189      26409.882      115328.89      38.924568      38.924568      76.118553          16040 
   3950000   3428.7586      898435.83      7425.8267      924613.79      993132.93      777560.76     -33163.1        37049.971     -17612.632      7108.5143      19292.146      26400.66       115344.93      38.926372      38.926372      76.122081          16040 
   3951000   3427.2137      898276.91      7433.6851      924343.97      991629.33      778857.44     -35818.047      46553.397     -16226.391      7105.3114      19286.056      26391.368      115361.34      38.928217      38.928217      76.125691          16040 
   3952000   3431.7082      900016.43      7441.5549      925076.47      994389.3       780583.53     -34365.354      43553.746     -15782.646      7114.6293      19298.459      26413.089      115322.22      38.923817      38.923817      76.117085          16040 
   3953000   3442.0075      908253.05      7449.4192      934366.56      1004003.8      786388.79     -33906.524      41553.04      -17087.567      7135.9818      19397.527      26533.508      115107.28      38.89962       38.89962       76.069766          16040 
   3954000   3453.8277      890951.33      7457.2868      912310.47      982660.26      777883.25     -33938.561      41480.271     -16488.716      7160.4876      19167.1        26327.587      115474.05      38.940892      38.940892      76.150475          16040 
   3955000   3442.5458      899100.27      7465.1581      920629.32      993814.68      782856.79     -37007.91       41882.015     -20030.937      7137.0979      19291.933      26429.031      115292.42      38.920464      38.920464      76.110529          16040 
   3956000   3445.7841      901987.93      7473.0253      926345.1       994330.46      785288.23     -35513.386      38207.464     -16088.686      7143.8115      19316.402      26460.213      115236.21      38.914138      38.914138      76.098158          16040 
   3957000   3445.5384      900384.14      7480.8905      924424.79      994005.92      782721.71     -31294.432      40154.949     -18272.137      7143.3021      19294.104      26437.406      115274.56      38.918454      38.918454      76.106598          16040 
   3958000   3445.1869      904186.23      7488.757       926985.19      1000330.3      785243.22     -34355.66       42511.039     -17149.003      7142.5734      19325.819      26468.393      115217.89      38.912075      38.912075      76.094124          16040 
   3959000   3401.4217      897447.57      7496.6206      920368.97      992833.73      779140.03     -35382.311      40448.614     -21041.872      7051.8393      19308.457      26360.296      115410.11      38.933703      38.933703      76.136418          16040 
   3960000   3428.0307      900332.65      7504.4804      922084.02      995743.79      783170.15     -35473.48       39939.689     -19682.428      7107.0051      19307.285      26414.29       115311.15      38.922571      38.922571      76.11465           16040 
   3961000   3442.6052      901398.67      7512.3411      924838.89      996494.74      782862.38     -38966.776      41815.999     -18413.83       7137.221       19301.707      26438.928      115265.1       38.917389      38.917389      76.104516          16040 
   3962000   3422.0163      894994.8       7520.2061      918056         990326.02      776602.36     -37638.941      44109.26      -15722.004      7094.5362      19244.886      26339.422      115441.71      38.937255      38.937255      76.143365          16040 
   3963000   3429.286       897767.11      7528.0709      919002.37      994032.63      780266.34     -36706.541      44945.004     -14672.835      7109.6076      19294.479      26404.087      115325.73      38.924212      38.924212      76.117857          16040 
   3964000   3436.7626      898386.99      7535.9479      923200.63      993190.49      778769.85     -35532.825      42253.334     -20213.04       7125.1082      19278.66       26403.768      115325.52      38.924188      38.924188      76.11781           16040 
   3965000   3409.4048      902031.87      7543.8145      925193.51      999039.03      781863.07     -39555.293      44494.421     -14926.726      7068.3899      19353.414      26421.804      115291.44      38.920354      38.920354      76.110314          16040 
   3966000   3430.2048      898739.33      7551.6884      922538.43      992751.79      780927.76     -36918.355      44424.014     -17763.369      7111.5125      19286.502      26398.014      115333.36      38.92507       38.92507       76.119536          16040 
   3967000   3477.6475      896383.21      7559.5529      919086.82      989523.2       780539.61     -35204.913      42474.399     -13527.422      7209.8709      19204.562      26414.433      115302.94      38.921647      38.921647      76.112843          16040 
   3968000   3429.5198      895532.97      7567.4218      918947.61      991193.52      776457.79     -35335.588      41535.861     -18019.302      7110.0923      19236.41       26346.502      115422.56      38.935103      38.935103      76.139155          16040 
   3969000   3403.9826      903716.17      7575.2817      926875.29      997236.68      787036.55     -37217.364      44803.607     -15615.993      7057.1486      19384.655      26441.804      115252.92      38.916019      38.916019      76.101836          16040 
   3970000   3402.2867      902787.12      7583.1434      928091.14      995417.72      784852.49     -33805.109      41433.806     -16923.546      7053.6326      19349.591      26403.223      115320.76      38.923653      38.923653      76.116765          16040 
   3971000   3429.9824      895155.39      7591.0078      918730.01      990924.94      775811.24     -35890.388      45091.341     -15687.696      7111.0514      19255.963      26367.014      115384.81      38.930858      38.930858      76.130854          16040 
   3972000   3428.3988      908550.14      7598.8738      934312.2       1005159.4      786178.84     -36198.447      42962.923     -19579.305      7107.7684      19409.532      26517.301      115117.41      38.900761      38.900761      76.071998          16040 
   3973000   3431.0728      902908.62      7606.7363      921474.39      997677.23      789574.24     -34839.842      44170.802     -16528.287      7113.312       19320.389      26433.701      115264.01      38.917267      38.917267      76.104277          16040 
   3974000   3425.0224      899622.4       7614.6038      924268.07      995374.19      779224.93     -35464.373      44378.549     -18176.334      7100.7684      19286.903      26387.671      115345.78      38.926468      38.926468      76.122269          16040 
   3975000   3403.1381      903817.51      7622.4746      927025.49      1000553.5      783873.55     -36045.291      42635.507     -15953.036      7055.3978      19371.216      26426.614      115275.93      38.918608      38.918608      76.106899          16040 
   3976000   3440.3467      906663.95      7630.332       931991.72      1000978.1      787022.02     -33714.651      39330.435     -19391.863      7132.5387      19357.584      26490.123      115162.4       38.905828      38.905828      76.081907          16040 
   3977000   3405.8483      892715.07      7638.1971      916378.91      985996.21      775770.09     -35259.589      40241.993     -21350.509      7061.0165      19239.889      26300.906      115498.97      38.943693      38.943693      76.155953          16040 
   3978000   3443.7016      900033.64      7646.0586      920995.5       997719.38      781386.05     -36417.241      39094.871     -20413.076      7139.4941      19288.906      26428.4        115270.24      38.917969      38.917969      76.105648          16040 
   3979000   3422.5237      902228.41      7653.9272      924963.15      1000182.8      781539.25     -36162.953      44583.358     -15458.768      7095.588       19315.967      26411.555      115298.69      38.92117       38.92117       76.111908          16040 
   3980000   3409.296       899445.4       7661.7921      920404.65      994530.12      783401.42     -32047.194      44431.951     -17271.626      7068.1642      19312.742      26380.906      115352.43      38.927216      38.927216      76.123732          16040 
   3981000   3454.3224      905486.36      7669.6588      927294.8       1000720.7      788443.62     -32884.381      42306.524     -16549.329      7161.5131      19355.308      26516.821      115111.26      38.900068      38.900068      76.070643          16040 
   3982000   3421.6985      893870.35      7677.5273      915170.92      991422.69      775017.44     -36781.557      40756.2       -15799.775      7093.8771      19234.165      26328.042      115447.19      38.937872      38.937872      76.14457           16040 
   3983000   3422.3367      903965.88      7685.395       928221.57      998804.11      784871.96     -37054.882      42290.688     -15560.912      7095.2003      19358.698      26453.899      115221.82      38.912518      38.912518      76.09499           16040 
   3984000   3417.1587      898804.49      7693.2596      919297.48      995453.47      781662.52     -34174.26       44551.113     -14787.156      7084.4654      19300.758      26385.224      115344.04      38.926271      38.926271      76.121885          16040 
   3985000   3405.6251      893324.28      7701.1222      916416.57      987520.92      776035.34     -33896.706      42242.716     -16264.762      7060.5538      19256.437      26316.991      115465.38      38.939917      38.939917      76.14857           16040 
   3986000   3425.198       904815.05      7708.987       929144.11      1000535.1      784765.96     -38088.497      44450.294     -13378.854      7101.1323      19359.73       26460.863      115208.48      38.911016      38.911016      76.092052          16040 
   3987000   3421.2263      900471.11      7716.8492      924799.01      993927.9       782686.41     -36952.314      42855.894     -14150.502      7092.8982      19307.637      26400.536      115314.24      38.922919      38.922919      76.115329          16040 
   3988000   3416.2123      895747.5       7724.7159      923131.97      990829.24      773281.3      -36945.566      38270.854     -19350.556      7082.5032      19283.399      26365.902      115373.32      38.929565      38.929565      76.128326          16040 
   3989000   3443.2879      905752.14      7732.578       932126.35      999818.96      785311.1      -37913.538      40419.465     -17040.679      7138.6363      19336.274      26474.911      115177.49      38.907527      38.907527      76.085229          16040 
   3990000   3429.0757      902879.85      7740.4455      926746.46      997026.6       784866.48     -36251.52       41404.677     -14330.362      7109.1717      19334.446      26443.618      115232.03      38.913668      38.913668      76.097238          16040 
   3991000   3408.7004      896425.72      7748.3107      920070.08      989807.95      779399.13     -38212.094      43017.548     -18944.766      7066.9294      19268.069      26334.998      115425.15      38.935394      38.935394      76.139725          16040 
   3992000   3440.797       906748.7       7756.1813      930360.06      1003387.2      786498.87     -38733.834      37813.638     -22738.222      7133.4722      19357.611      26491.083      115146.47      38.904034      38.904034      76.078398          16040 
   3993000   3425.1374      900994.78      7764.0442      925373.66      995872.6       781738.09     -38264.376      43218.123     -21667.319      7101.0067      19318.282      26419.288      115272.78      38.918253      38.918253      76.106205          16040 
   3994000   3402.2457      895625.11      7771.9064      919282.44      993250.44      774342.45     -36855.107      44596.714     -16706.647      7053.5475      19281.05       26334.597      115422.87      38.935138      38.935138      76.139224          16040 
   3995000   3430.4575      902964.79      7779.7773      927668.27      998451.03      782775.09     -37549.01       42382.782     -19192.42       7112.0364      19344.874      26456.91       115204.24      38.910539      38.910539      76.09112           16040 
   3996000   3431.4358      900091.14      7787.6441      925702.9       993840.84      780729.67     -35706.118      39424.034     -16686.09       7114.0646      19282.559      26396.624      115311.67      38.92263       38.92263       76.114764          16040 
   3997000   3422.7923      902689.66      7795.5073      923683.52      999733.3       784652.18     -33970.047      43204.877     -16783.05       7096.1448      19305.762      26401.907      115300.98      38.921427      38.921427      76.112412          16040 
   3998000   3435.9501      902411.83      7803.3733      924957.32      1001237.6      781040.54     -38021.373      42016.929     -21154.002      7123.4236      19295.756      26419.18       115269.68      38.917905      38.917905      76.105523          16040 
   3999000   3454.5747      894265.99      7811.2384      916633.78      992638.35      773525.85     -36662.247      42371.827     -18335.97       7162.0362      19190.472      26352.508      115387.59      38.931171      38.931171      76.131465          16040 
   4000000   3418.9279      899738.17      7819.1078      924294.39      996413.12      778506.99     -35620.277      44384.719     -18192.662      7088.1332      19295.525      26383.658      115331.88      38.924904      38.924904      76.119212          16040 
Loop time of 7819.11 on 8 procs for 1000000 steps with 16040 atoms

Performance: 5.525 ns/day, 4.344 hours/ns, 127.892 timesteps/s
60.9% CPU use with 1 MPI tasks x 8 OpenMP threads

MPI task timing breakdown:
Section |  min time  |  avg time  |  max time  |%varavg| %total
---------------------------------------------------------------
Pair    | 7547.6     | 7547.6     | 7547.6     |   0.0 | 96.53
Neigh   | 11.11      | 11.11      | 11.11      |   0.0 |  0.14
Comm    | 34.775     | 34.775     | 34.775     |   0.0 |  0.44
Output  | 1.3778     | 1.3778     | 1.3778     |   0.0 |  0.02
Modify  | 198.69     | 198.69     | 198.69     |   0.0 |  2.54
Other   |            | 25.53      |            |       |  0.33

Nlocal:          16040 ave       16040 max       16040 min
Histogram: 1 0 0 0 0 0 0 0 0 0
Nghost:          15764 ave       15764 max       15764 min
Histogram: 1 0 0 0 0 0 0 0 0 0
Neighs:              0 ave           0 max           0 min
Histogram: 1 0 0 0 0 0 0 0 0 0
FullNghs:  2.01239e+06 ave 2.01239e+06 max 2.01239e+06 min
Histogram: 1 0 0 0 0 0 0 0 0 0

Total # of neighbors = 2012386
Ave neighs/atom = 125.46047
Neighbor list builds = 27428
Dangerous builds = 0
Total wall time: 8:20:41
