
atom_style atomic
units metal
boundary p p p
#atom_modify sort 0 0.0
newton on

read_data data.lammps
Reading data file ...
  orthogonal box = (0 0 0) to (43.790145 43.790145 87.58029)
  1 by 1 by 1 MPI processor grid
  reading atoms ...
  16040 atoms
  read_data CPU = 0.040 seconds
# replicate 10 10 20

### interactions

pair_style flare
pair_coeff * * lmp.flare
Reading potential file lmp.flare with DATE: Thu

# compute unc all flare/std/atom L_inv_lmp.flare sparse_desc_lmp.flare
# compute MaxUnc all reduce max c_unc

mass 1 12.011000
mass 2 28.085000

thermo_style custom step temp press cpu pxx pyy pzz pxy pxz pyz ke pe etotal vol lx ly lz atoms    #c_MaxUnc
thermo 1000
timestep 0.0005
restart 100000 restart_*.dat

#################### Equilibrate at P and T_es ##############################
velocity all create $T 41928459 rot yes dist gaussian
velocity all create 3200 41928459 rot yes dist gaussian
fix mom all momentum 1000 linear 1 1 1 angular

fix 1 all npt temp $T $T $(100.0*dt) iso $P $P $(1000.0*dt)
fix 1 all npt temp 3200 $T $(100.0*dt) iso $P $P $(1000.0*dt)
fix 1 all npt temp 3200 3200 $(100.0*dt) iso $P $P $(1000.0*dt)
fix 1 all npt temp 3200 3200 0.050000000000000002776 iso $P $P $(1000.0*dt)
fix 1 all npt temp 3200 3200 0.050000000000000002776 iso 900000 $P $(1000.0*dt)
fix 1 all npt temp 3200 3200 0.050000000000000002776 iso 900000 900000 $(1000.0*dt)
fix 1 all npt temp 3200 3200 0.050000000000000002776 iso 900000 900000 0.5
dump 1 all custom 1000 1equil.bin id type x y z vx vy vz
run   10000 # report performance
Neighbor list info ...
  update every 1 steps, delay 10 steps, check yes
  max neighbors/atom: 2000, page size: 100000
  master list distance cutoff = 6
  ghost atom cutoff = 6
  binsize = 6, bins = 8 8 15
  1 neighbor lists, perpetual/occasional/extra = 1 0 0
  (1) pair flare/kk, perpetual
      attributes: full, newton on, kokkos_device
      pair build: full/bin/kk/device
      stencil: full/bin/3d
      bin: kk/device
Per MPI rank memory allocation (min/avg/max) = 16.04 | 16.04 | 16.04 Mbytes
   Step          Temp          Press           CPU            Pxx            Pyy            Pzz            Pxy            Pxz            Pyz           KinEng         PotEng         TotEng         Volume           Lx             Ly             Lz          Atoms   
         0   3200           76627.815      0              77285.378      76158.543      76439.524      1157.9361     -232.12173     -781.28355      6634.2511     -2985.8921      3648.359       167941.93      43.790145      43.790145      87.58029           16040 
      1000   3273.0009      899729.95      7.4025424      898543.56      900926.22      899720.07      2064.3623      369.99895     -1067.8512      6785.5968      11332.935      18118.532      132669.58      40.480617      40.480617      80.961234          16040 
      2000   3164.8053      902027.91      15.061398      901789.16      903581.87      900712.7       4517.8584      946.93383     -1061.0898      6561.2853      11212.428      17773.713      132369.41      40.450064      40.450064      80.900129          16040 
      3000   3236.193       898852.61      22.718991      897127.84      899171.11      900258.88      1622.8417      2553.3957      11.036142      6709.2865      11331.09       18040.377      132435.55      40.4568        40.4568        80.913601          16040 
      4000   3168.6376      899335.01      30.381943      901088.32      897470         899446.71      783.96469      1905.137       895.55374      6569.2305      11256.03       17825.261      132331.34      40.446186      40.446186      80.892371          16040 
      5000   3210.7864      900960.72      38.033463      900564.93      901449.52      900867.71      2955.4066      1620.4596     -1085.0043      6656.6134      11371.893      18028.507      132376.23      40.450758      40.450758      80.901517          16040 
      6000   3185.7086      897451.29      45.67197       898429.79      898574.09      895349.98      2041.9109      3661.6202      495.97358      6604.6221      11228.776      17833.398      132388.6       40.452019      40.452019      80.904038          16040 
      7000   3183.4402      897770.39      53.310788      898673.58      899431.55      895206.04     -1490.4412     -86.322382     -627.15039      6599.9192      11348.489      17948.408      132430.97      40.456334      40.456334      80.912668          16040 
      8000   3172.8661      902226.78      60.945429      902786.54      901169         902724.8      -273.25732     -2795.6296      458.96918      6577.997       11280.761      17858.758      132295.39      40.442523      40.442523      80.885045          16040 
      9000   3189.3791      900433.66      68.575683      897757.85      897953.09      905590.05     -1965.151      -1097.0431      1000.9634      6612.2319      11329.138      17941.37       132385.73      40.451726      40.451726      80.903453          16040 
     10000   3177.9108      900104.08      76.207444      900410.4       897743.71      902158.13     -401.38706     -592.9957      -3909.3367      6588.4558      11238.689      17827.145      132378.63      40.451003      40.451003      80.902005          16040 
Loop time of 76.2075 on 8 procs for 10000 steps with 16040 atoms

Performance: 5.669 ns/day, 4.234 hours/ns, 131.221 timesteps/s
62.2% CPU use with 1 MPI tasks x 8 OpenMP threads

MPI task timing breakdown:
Section |  min time  |  avg time  |  max time  |%varavg| %total
---------------------------------------------------------------
Pair    | 73.014     | 73.014     | 73.014     |   0.0 | 95.81
Neigh   | 0.094015   | 0.094015   | 0.094015   |   0.0 |  0.12
Comm    | 0.4072     | 0.4072     | 0.4072     |   0.0 |  0.53
Output  | 0.01541    | 0.01541    | 0.01541    |   0.0 |  0.02
Modify  | 2.3908     | 2.3908     | 2.3908     |   0.0 |  3.14
Other   |            | 0.2864     |            |       |  0.38

Nlocal:          16040 ave       16040 max       16040 min
Histogram: 1 0 0 0 0 0 0 0 0 0
Nghost:          14596 ave       14596 max       14596 min
Histogram: 1 0 0 0 0 0 0 0 0 0
Neighs:              0 ave           0 max           0 min
Histogram: 1 0 0 0 0 0 0 0 0 0
FullNghs:  1.76849e+06 ave 1.76849e+06 max 1.76849e+06 min
Histogram: 1 0 0 0 0 0 0 0 0 0

Total # of neighbors = 1768488
Ave neighs/atom = 110.25486
Neighbor list builds = 228
Dangerous builds = 0
run  990000
Per MPI rank memory allocation (min/avg/max) = 16.48 | 16.48 | 16.48 Mbytes
   Step          Temp          Press           CPU            Pxx            Pyy            Pzz            Pxy            Pxz            Pyz           KinEng         PotEng         TotEng         Volume           Lx             Ly             Lz          Atoms   
     10000   3177.9108      900104.08      0              900410.4       897743.71      902158.13     -401.38706     -592.9957      -3909.3367      6588.4558      11238.689      17827.145      132378.63      40.451003      40.451003      80.902005          16040 
     11000   3239.5922      906580.72      7.6362948      908666.73      906505.76      904569.66      3417.7318      1050.2233     -1253.9761      6716.3338      11271.953      17988.287      132225.15      40.435364      40.435364      80.870728          16040 
     12000   3185.343       892947.2       15.267998      891939.57      895585.84      891316.2      -3782.21        2445.5917      2863.5054      6603.8642      11089.803      17693.667      132497.92      40.46315       40.46315       80.926299          16040 
     13000   3185.5065      897941.75      22.898548      897776.63      898170.74      897877.87      219.25045      2808.4622     -746.77222      6604.2031      11253.264      17857.467      132403.79      40.453565      40.453565      80.907131          16040 
     14000   3152.6024      901851.95      30.528609      902245.23      902659.03      900651.6       166.03643     -1478.666       571.85797      6535.9862      11258.12       17794.106      132284.55      40.441418      40.441418      80.882836          16040 
     15000   3206.4541      897788.77      38.156119      898654.64      896998.41      897713.25     -3953.0927      18.312885     -260.01083      6647.6318      11179.957      17827.589      132458.3       40.459117      40.459117      80.918233          16040 
     16000   3167.4845      905350.73      45.785034      905920.87      905595.36      904535.97      223.41019     -2461.5376      3043.0121      6566.8399      11283.995      17850.835      132203.21      40.433128      40.433128      80.866255          16040 
     17000   3188.5271      897826.38      53.414194      896142.34      899692.27      897644.53      3060.6346     -5021.5226     -1354.2246      6610.4655      11108.894      17719.36       132394.6       40.45263       40.45263       80.905259          16040 
     18000   3199.0412      897814.02      61.050808      898305.72      898691.77      896444.59     -2104.5316      2726.0462     -1038.8472      6632.2633      11240.045      17872.308      132408.49      40.454044      40.454044      80.908088          16040 
     19000   3219.5595      905907.48      68.680819      908756.4       903566.5       905399.55     -213.46372      744.99794      3000.8021      6674.8019      11338.65       18013.452      132240.12      40.43689       40.43689       80.873781          16040 
     20000   3200.6436      897557.39      76.31056       897045.36      896574.81      899052.01      511.52072      581.69528     -3031.7606      6635.5854      11134.117      17769.703      132408.58      40.454053      40.454053      80.908107          16040 
     21000   3151.3277      903092.35      83.939459      905002.06      903643.86      900631.12     -3406.9922     -1606.7682      746.88172      6533.3435      11261.75       17795.094      132255.27      40.438434      40.438434      80.876868          16040 
     22000   3217.7593      902889.63      91.572795      902738.28      901549.89      904380.71     -257.94794     -20.293799      141.67092      6671.0698      11205.259      17876.329      132318.3       40.444857      40.444857      80.889714          16040 
     23000   3203.4559      894697.97      99.206736      893671.05      895940.04      894482.82      1072.6903      4637.4044      4604.5242      6641.4158      11054.588      17696.004      132520.89      40.465488      40.465488      80.930976          16040 
     24000   3227.7266      905202.11      106.84113      907276.31      904084.76      904245.25     -3993.6435     -3416.4483     -1084.8289      6691.7339      11266.483      17958.216      132239.92      40.436869      40.436869      80.873739          16040 
     25000   3183.6359      897630.86      114.47664      894433.32      896535.92      901923.33     -2894.9783      191.79806     -732.81755      6600.3251      11120.222      17720.547      132468.41      40.460146      40.460146      80.920292          16040 
     26000   3189.3532      901328.89      122.11041      899301.96      904324.62      900360.08      343.90972     -1406.9588      5546.566       6612.1782      11216.048      17828.226      132352.15      40.448306      40.448306      80.896612          16040 
     27000   3201.4141      902243.32      129.74033      903907.32      902455.99      900366.65     -1847.0162      3696.49        4256.4208      6637.1828      11223.956      17861.139      132306.2       40.443624      40.443624      80.887249          16040 
     28000   3221.166       894670.91      137.37425      892725.38      896279.29      895008.08      1675.0733      3936.9171     -996.50579      6678.1324      11189.471      17867.603      132549.36      40.468385      40.468385      80.936771          16040 
     29000   3182.165       903028         145.00998      900011.24      905354.52      903718.23     -2153.7289      2084.4625     -1231.7664      6597.2755      11250.751      17848.027      132233.9       40.436256      40.436256      80.872511          16040 
     30000   3199.3254      903250.28      152.64371      900788.94      904923.93      904037.97      74.912678     -1773.0518      3514.0688      6632.8524      11102.729      17735.582      132322.54      40.445289      40.445289      80.890578          16040 
     31000   3192.6971      892540         160.27478      890899.92      893585.43      893134.65      475.89833      2823.6613     -397.9985       6619.1107      11149.059      17768.169      132574.97      40.470992      40.470992      80.941984          16040 
     32000   3207.5821      904948.8       167.90485      903648.82      908505.64      902691.95     -1346.8775      526.03307      873.60404      6649.9704      11236.039      17886.009      132281.46      40.441103      40.441103      80.882206          16040 
     33000   3180.458       901652.03      175.53579      899185.98      902998.47      902771.62      2027.5004     -2762.3006      11.82403       6593.7365      11196.901      17790.638      132363.21      40.449432      40.449432      80.898865          16040 
     34000   3197.246       898072.71      183.16931      898466.75      895858.49      899892.9      -206.73267     -2573.4038     -3786.4954      6628.5416      11074.414      17702.956      132437.71      40.45702       40.45702       80.914041          16040 
     35000   3201.5246      905006.95      190.79762      905166.61      905308.29      904545.94      98.728232     -2086.3362      907.51841      6637.4118      11289.817      17927.228      132206.25      40.433437      40.433437      80.866874          16040 
     36000   3178.0666      895118.42      198.42024      892654.58      896614.63      896086.04     -556.73542      1467.2989     -6059.1619      6588.7787      11106.878      17695.657      132525.38      40.465945      40.465945      80.931889          16040 
     37000   3226.4889      902194.97      206.04992      901436.24      902867.87      902280.81      1945.3021      2967.0238      1316.6468      6689.168       11189.46       17878.628      132363.63      40.449475      40.449475      80.89895           16040 
     38000   3201.6864      901990.75      213.67489      900528.85      903126.23      902317.18     -1327.2426     -3204.0837      742.1737       6637.7474      11170.01       17807.757      132357.08      40.448808      40.448808      80.897615          16040 
     39000   3181.2659      894828.29      221.30063      893765.16      893336.11      897383.61     -4291.8582      6013.6323     -5480.6097      6595.4114      11054.031      17649.442      132519.78      40.465375      40.465375      80.93075           16040 
     40000   3198.0631      905791.76      228.92452      904332.78      904583.85      908458.65      402.24427     -86.167452     -2967.1142      6630.2356      11251.195      17881.43       132262.34      40.439155      40.439155      80.87831           16040 
     41000   3195.0277      898922.34      236.55489      899030.32      897741.94      899994.76     -2056.4871      881.93516     -366.95871      6623.9425      11064.584      17688.527      132408.61      40.454057      40.454057      80.908113          16040 
     42000   3206.5493      897695.14      244.17855      898062.37      896153.11      898869.94     -3634.6987     -479.32501      2886.6959      6647.8292      11182.402      17830.231      132482.97      40.461628      40.461628      80.923256          16040 
     43000   3206.3634      907656.06      251.80209      904274.02      911421.22      907272.93      390.00785      5872.4722      376.18796      6647.4437      11260.919      17908.362      132163.75      40.429104      40.429104      80.858208          16040 
     44000   3193.5448      898074.44      259.42742      900303.71      898005.34      895914.27     -1202.0559      1917.9142      2268.232       6620.8682      11106.628      17727.496      132455.19      40.4588        40.4588        80.9176            16040 
     45000   3247.2871      896897.18      267.05528      895512.79      899344.23      895834.52      1431.7909      4463.777       4355.8041      6732.2868      10955.902      17688.189      132488.9       40.462231      40.462231      80.924463          16040 
     46000   3234.4873      901085.99      274.68406      902945.83      900514.14      899798.01      4458.4561      2687.391      -5557.3753      6705.7503      11018.254      17724.004      132340.82      40.447152      40.447152      80.894304          16040 
     47000   3228.9479      899209.47      282.31041      899872.48      899618.9       898137.03      815.59324     -579.04587      7016.5896      6694.266       11171.048      17865.314      132435.58      40.456803      40.456803      80.913607          16040 
     48000   3186.0593      901945.18      289.93795      901075.47      901137.76      903622.31      3941.026       1771.5219     -1568.1154      6605.3492      11158.152      17763.502      132326.55      40.445698      40.445698      80.891396          16040 
     49000   3211.5793      901078.63      297.56722      903415.48      900240.17      899580.23      1944.4282      1911.9983     -929.08679      6658.2573      11211.456      17869.713      132363.79      40.449491      40.449491      80.898982          16040 
     50000   3237.346       887715.94      305.1983       887198.28      887769.67      888179.86     -1784.031      -513.5584      -3649.538       6711.677       10869.741      17581.418      132669.63      40.480622      40.480622      80.961244          16040 
     51000   3198.055       903558.34      312.82726      904630.48      902770.98      903273.55     -505.49888      5079.6703     -4938.2733      6630.2188      11225.568      17855.786      132265.51      40.439477      40.439477      80.878955          16040 
     52000   3211.2035      899303.03      320.45725      896727.13      900878.12      900303.85      3628.1301      44.416097      4603.1413      6657.4783      11028.447      17685.925      132356.96      40.448795      40.448795      80.89759           16040 
     53000   3194.8211      896078.79      328.08606      894650.6       897339.19      896246.58     -1534.2798     -1474.961      -1332.3316      6623.5142      11027.185      17650.699      132491.01      40.462446      40.462446      80.924893          16040 
     54000   3258.6928      905147.46      335.71273      903088.1       904441.95      907912.31      57.009137      578.68683      1414.064       6755.9331      11221.362      17977.295      132301.54      40.44315       40.44315       80.886299          16040 
     55000   3182.6738      898164.4       343.34031      898642.25      896783.68      899067.26      1604.6797      247.18181     -1031.3123      6598.3303      11090.468      17688.798      132382.7       40.451418      40.451418      80.902836          16040 
     56000   3227.7714      897300.93      350.9692       898158.58      896773         896971.2       1576.2013      58.947973      2478.1729      6691.8269      11044.365      17736.192      132475.2       40.460837      40.460837      80.921674          16040 
     57000   3173.5715      904930.56      358.59861      903548.46      904973.44      906269.77     -5413.8615      396.55642      887.69587      6579.4595      11152.595      17732.054      132218.01      40.434636      40.434636      80.869273          16040 
     58000   3216.4701      899086.13      366.2294       898832.05      899389.81      899036.53     -7132.1314      1743.2381      3686.7741      6668.3969      11102.993      17771.39       132420.04      40.455221      40.455221      80.910442          16040 
     59000   3232.3939      894481.35      373.86448      894884.62      893913.35      894646.1      -3217.3387     -1097.1455     -1490.9718      6701.4103      10969.455      17670.865      132562.61      40.469734      40.469734      80.939469          16040 
     60000   3206.5424      903497.91      381.49748      902663.01      905174.93      902655.8       2085.1208     -2495.9298      2835.4793      6647.8148      11151.235      17799.05       132277.46      40.440695      40.440695      80.88139           16040 
     61000   3226.1382      897204.65      389.13122      897002.35      897937.14      896674.46     -5995.9767     -6516.5882     -1034.6757      6688.4409      11085.361      17773.802      132448.2       40.458088      40.458088      80.916177          16040 
     62000   3187.3313      901530.9       396.76322      898728.39      904108.54      901755.77     -3643.6994     -3145.272       1183.7902      6607.9862      11176.202      17784.188      132265.43      40.43947       40.43947       80.878939          16040 
     63000   3191.3332      902077.96      404.39469      903074.59      903374.75      899784.54      949.03475      1844.5949      879.67143      6616.2831      11222.618      17838.901      132333.57      40.446412      40.446412      80.892825          16040 
     64000   3170.041       892798.29      412.02561      890120.42      892788         895486.46      258.90137     -3799.9376      2866.8952      6572.1401      11037.769      17609.91       132556.66      40.469129      40.469129      80.938257          16040 
     65000   3218.2984      910716.66      419.65603      912106.82      910977.72      909065.45      1828.3237     -3749.0238     -1963.0407      6672.1873      11197.013      17869.2        132091.78      40.421764      40.421764      80.843528          16040 
     66000   3174.2241      897085.73      427.28776      896901.25      896934.89      897421.04      842.67117     -211.82085     -5403.0094      6580.8125      10992.273      17573.085      132413.89      40.454594      40.454594      80.909188          16040 
     67000   3177.0283      896514.59      434.92033      894263.14      898602.89      896677.75      1560.1324     -8087.967      -1421.3301      6586.6261      11107.204      17693.83       132476.29      40.460948      40.460948      80.921895          16040 
     68000   3242.0146      906037.08      442.54931      906641.44      906408.1       905061.7       563.87025     -5283.2359     -2657.9222      6721.3559      11113.437      17834.793      132270.95      40.440032      40.440032      80.880065          16040 
     69000   3170.0405      896732.22      450.18078      896736.6       899089.79      894370.27      1093.7183      2262.8365      3259.8223      6572.1389      11028.026      17600.165      132452.9       40.458567      40.458567      80.917133          16040 
     70000   3218.0602      898741.57      457.81196      896723.07      899418.39      900083.26      2021.6142     -1940.9935      751.7221       6671.6935      11032.248      17703.942      132400.26      40.453207      40.453207      80.906413          16040 
     71000   3188.5939      902949.31      465.44315      902625.86      903934.87      902287.21     -3165.6924      2309.6516     -1165.1736      6610.6039      11053.244      17663.848      132302.09      40.443205      40.443205      80.886411          16040 
     72000   3207.0452      894446.71      473.07282      894405.99      894223.76      894710.38      699.75819      1124.2533      215.5738       6648.8572      11009.91       17658.767      132550.67      40.468519      40.468519      80.937038          16040 
     73000   3202.0227      908960.25      480.70433      909332.93      908711.97      908835.84      575.72815      614.81132     -2654.9089      6638.4446      11144.007      17782.452      132162.96      40.429024      40.429024      80.858048          16040 
     74000   3209.8888      900855.38      488.33792      904093         901127.56      897345.59      3986.1286     -2495.4854      257.52336      6654.7525      11122.058      17776.811      132394.37      40.452606      40.452606      80.905212          16040 
     75000   3229.5163      896077.92      495.97003      896598.62      895820.55      895814.58      3341.4074     -1408.7173      1937.5682      6695.4444      10973.819      17669.263      132487.15      40.462054      40.462054      80.924108          16040 
     76000   3228.5208      900977.23      503.6008       899486.81      903261.06      900183.82      1448.6473     -167.35477      3959.0878      6693.3806      11099.277      17792.658      132410.15      40.454213      40.454213      80.908426          16040 
     77000   3201.113       902281.7       511.23035      903373.27      901938.09      901533.74     -3032.91       -1013.8916     -4225.6705      6636.5586      11057.518      17694.077      132361.75      40.449284      40.449284      80.898568          16040 
     78000   3210.0283      894783.01      518.86084      894761.46      892506.43      897081.15     -247.03995      2560.4557     -2187.5396      6655.0417      10926.431      17581.472      132504.7       40.463841      40.463841      80.927681          16040 
     79000   3237.9992      906054.4       526.48858      904720.76      906877.75      906564.7      -383.68219      3070.2216      283.53088      6713.0311      11182.202      17895.233      132273.61      40.440303      40.440303      80.880607          16040 
     80000   3189.1359      901079.44      534.1191       903514.34      898651.44      901072.55      3799.5668      259.36944      1228.1035      6611.7276      11036.083      17647.811      132363.29      40.44944       40.44944       80.89888           16040 
     81000   3233.5672      894360.08      541.74666      894746.91      895516.05      892817.28      1322.3455     -807.39699     -2834.402       6703.8427      10926.778      17630.621      132565.74      40.470053      40.470053      80.940106          16040 
     82000   3189.1984      905266.32      549.37592      904697.62      905078.07      906023.26      5113.0351     -1625.6602     -1712.7315      6611.8571      11130.369      17742.226      132210.28      40.433848      40.433848      80.867697          16040 
     83000   3218.7079      899664.84      557.00429      900977.32      902951.25      895065.94     -1164.816      -131.12723      3565.9706      6673.0364      11015.508      17688.544      132395.05      40.452675      40.452675      80.905351          16040 
     84000   3190.9613      899035.82      564.63191      898045.07      901411.24      897651.14     -196.32339     -635.28723     -18.097274      6615.512       10996.529      17612.041      132391.17      40.45228       40.45228       80.904561          16040 
     85000   3213.4225      903168.59      572.26121      903012.53      903941.89      902551.34     -3818.7283     -3017.6706     -3944.3825      6662.0787      11099.637      17761.716      132351.38      40.448228      40.448228      80.896455          16040 
     86000   3160.3633      896165.19      579.89086      897890         896337.02      894268.55     -1880.9824     -2018.1343      3765.8592      6552.0761      11005.51       17557.586      132491.33      40.462479      40.462479      80.924959          16040 
     87000   3180.6202      897179.71      587.52004      896590.02      898314.54      896634.56      2915.0394     -2471.7082      1842.097       6594.0728      11071.484      17665.557      132477.14      40.461035      40.461035      80.922069          16040 
     88000   3201.1783      909073.27      595.149        905912.8       908786.93      912520.06      1708.8397      1469.9991      150.4477       6636.6939      11146.585      17783.279      132168.89      40.429628      40.429628      80.859256          16040 
     89000   3192.934       896104.32      602.7766       899050.1       896875.96      892386.91      216.56438      1532.3801     -3978.8616      6619.6018      11000.512      17620.114      132522.48      40.46565       40.46565       80.9313            16040 
     90000   3185.5464      898926.19      610.40692      897078.17      901824.21      897876.18     -360.88782     -2300.2132     -3527.4403      6604.2859      10983.903      17588.189      132400.37      40.453218      40.453218      80.906435          16040 
     91000   3198.0028      903011.48      618.03489      903468.21      901013.73      904552.5      -3170.9361     -2875.3406     -541.28682      6630.1105      11115.536      17745.646      132311.41      40.444155      40.444155      80.88831           16040 
     92000   3168.2905      898918.98      625.66657      901087.93      898784.23      896884.77      1505.5484     -1506.7027     -5207.3487      6568.5109      10943.97       17512.481      132426.45      40.455873      40.455873      80.911747          16040 
     93000   3198.7402      897460.41      633.29524      899891.78      896098.02      896391.43      187.5277       1583.5311     -1687.1471      6631.6394      11017.595      17649.234      132473.01      40.460614      40.460614      80.921229          16040 
     94000   3178.7436      902568.6       640.9234       900781.37      903263.43      903661        -51.994443     -7333.6144      3044.3973      6590.1823      11053.12       17643.302      132315.24      40.444546      40.444546      80.889091          16040 
     95000   3205.7511      899884.26      648.54787      899863.2       898537.01      901252.58     -565.63611      962.49749     -83.32265       6646.1743      11075.54       17721.714      132453.99      40.458678      40.458678      80.917355          16040 
     96000   3198.0457      888952.82      656.17246      888618.95      888968.8       889270.71      2495.114      -1707.0883     -1998.4165      6630.1994      10892.209      17522.409      132662.79      40.479926      40.479926      80.959852          16040 
     97000   3191.1195      904416.55      663.7969       903448.69      903882.24      905918.72     -1423.2777      1851.9884      1013.9643      6615.84        11179.203      17795.043      132285.28      40.441492      40.441492      80.882984          16040 
     98000   3192.0399      897991.16      671.42006      899082.43      897311.54      897579.52     -2746.3786      3372.4549      680.73329      6617.7482      10992.175      17609.924      132509.04      40.464282      40.464282      80.928563          16040 
     99000   3211.1234      900553.64      679.04349      899579.97      902744.71      899336.22     -1423.9515     -122.45585     -3050.8577      6657.3121      11046.878      17704.19       132409.42      40.454139      40.454139      80.908279          16040 
    100000   3202.1963      900568.81      686.66963      900770.42      902529.64      898406.36     -3889.0981     -654.51126     -2834.7147      6638.8044      11059.719      17698.524      132392.93      40.452459      40.452459      80.904919          16040 
    101000   3173.113       898894.35      694.29153      897172.1       896943.21      902567.73      2992.9861      3714.6447     -2399.0406      6578.5089      10979.78       17558.289      132423.62      40.455585      40.455585      80.911171          16040 
    102000   3229.6291      905841.37      701.91653      906366.69      907138.33      904019.08      3217.1064     -2590.9081      12.015245      6695.6782      11101.231      17796.909      132280.05      40.44096       40.44096       80.88192           16040 
    103000   3197.41        890489.41      709.5427       890986.4       891194.14      889287.69      3328.5963     -429.88734     -5412.9947      6628.8815      10928.462      17557.344      132646.67      40.478286      40.478286      80.956572          16040 
    104000   3187.9423      902310.05      717.17205      902107.41      902888.98      901933.77     -703.67857     -2829.1939     -825.61496      6609.253       11083.172      17692.425      132348.74      40.447958      40.447958      80.895916          16040 
    105000   3218.8448      903185.76      724.79865      901459.66      904575.55      903522.06      1607.6624      95.543405      2618.2444      6673.3202      11123.069      17796.389      132333.14      40.446369      40.446369      80.892737          16040 
    106000   3207.4113      897901.59      732.42717      898729.19      897263.71      897711.87     -115.43885     -1391.1372      1592.8947      6649.6162      10951.671      17601.287      132446.97      40.457963      40.457963      80.915925          16040 
    107000   3236.8406      903117.38      740.05505      904568.66      901801.56      902981.93      961.12605     -2403.3192     -426.71923      6710.6291      11079.062      17789.691      132372.08      40.450336      40.450336      80.900671          16040 
    108000   3227.9018      903094.21      747.68568      902361.58      904029.08      902891.96     -515.34381     -1222.5303     -1836.9245      6692.0972      11011.132      17703.229      132318.87      40.444916      40.444916      80.889831          16040 
    109000   3191.4502      896444.27      755.31519      896325.25      895913.34      897094.21      1970.3367      1279.0181     -6284.9471      6616.5256      10959.821      17576.346      132458.95      40.459183      40.459183      80.918365          16040 
    110000   3190.2853      903364.03      762.94525      903858.52      904405.55      901828.03      898.31705     -1126.9345      1047.4892      6614.1105      11073.483      17687.593      132288.9       40.441861      40.441861      80.883722          16040 
    111000   3192.4436      901521.18      770.57427      900221.96      902792.81      901548.76     -841.64146      1880.5252      3821.8881      6618.5852      11094.375      17712.96       132338.09      40.446873      40.446873      80.893747          16040 
    112000   3177.4077      899227.33      778.20085      898734.36      898954.59      899993.05      3215.9837     -1980.9035      1206.0091      6587.4127      10925.565      17512.977      132477.56      40.461078      40.461078      80.922156          16040 
    113000   3224.6301      904125.64      785.82799      902934.61      904408.72      905033.58     -1022.2704      821.43621     -1965.5725      6685.3143      11066.676      17751.99       132311         40.444114      40.444114      80.888227          16040 
    114000   3236.3367      900270.23      793.45369      901715.92      901627.52      897467.25      418.64867      1087.8281     -330.3729       6709.5845      10996.946      17706.53       132364.05      40.449518      40.449518      80.899036          16040 
    115000   3188.4702      897675.59      801.07739      898697.81      897760.16      896568.8      -550.37678     -1420.0526      4869.4232      6610.3475      10975.52       17585.867      132476.37      40.460956      40.460956      80.921912          16040 
    116000   3176.9268      903613.83      808.70603      905589.44      903167.4       902084.63      379.32604      1838.0162     -1855.1883      6586.4156      11160.618      17747.034      132275.35      40.44048       40.44048       80.880961          16040 
    117000   3200.1218      900524.56      816.3333       897676.82      904867.33      899029.52     -990.27535      1691.558      -642.87782      6634.5036      11091.517      17726.021      132386.82      40.451838      40.451838      80.903675          16040 
    118000   3212.9297      896582.11      823.95831      894521.67      897656.48      897568.16     -2518.9005      1113.4191     -2508.8868      6661.0571      10954.909      17615.966      132486.15      40.461952      40.461952      80.923904          16040 
    119000   3212.2092      905750.98      831.5844       903815.37      906325.06      907112.51     -1538.0014     -954.08804     -1183.0792      6659.5632      11145.305      17804.868      132280.69      40.441024      40.441024      80.882049          16040 
    120000   3214.7192      900889.49      839.21358      899667.81      901774.71      901225.94     -1853.6332      2988.4219      4805.7599      6664.7669      11002.01       17666.777      132390.06      40.452168      40.452168      80.904336          16040 
    121000   3193.2747      896687.55      846.84411      896598.62      896102.74      897361.29     -2834.0052      4218.5213      3624.1824      6620.3082      10970.504      17590.812      132473.71      40.460686      40.460686      80.921371          16040 
    122000   3210.889       905590.73      854.47265      908135.11      905232.01      903405.06      598.72974     -3521.8985     -3131.1204      6656.8261      11169.695      17826.522      132247.51      40.437643      40.437643      80.875286          16040 
    123000   3197.4567      898192.04      862.10044      897692.85      897331.24      899552.02      5039.5713      2642.1601      3829.8845      6628.9784      10978.531      17607.51       132466.99      40.460001      40.460001      80.920002          16040 
    124000   3193.2519      895565.93      869.7289       899036.84      893056.17      894604.77     -1937.5824      3312.0424      910.34455      6620.261       11012.154      17632.415      132461.71      40.459463      40.459463      80.918927          16040 
    125000   3206.4587      905967.12      877.35912      902653.56      910574.52      904673.27     -2443.8668     -38.359586      1572.3712      6647.6413      11154.059      17801.7        132251.13      40.438013      40.438013      80.876025          16040 
    126000   3194.0649      898366.09      884.98388      897420.41      898189.27      899488.6      -2619.4661      2426.605      -1434.8565      6621.9464      11091.194      17713.14       132414.9       40.454697      40.454697      80.909395          16040 
    127000   3167.8803      895422.57      892.61354      895945.84      894363.3       895958.58     -1790.4632      9132.8922     -2801.6224      6567.6605      10921.32       17488.98       132472.86      40.460599      40.460599      80.921198          16040 
    128000   3231.4703      904189.36      900.24297      903015.75      904671.01      904881.33     -866.60136     -197.28805     -68.114968      6699.4954      11088.488      17787.983      132270.01      40.439936      40.439936      80.879873          16040 
    129000   3161.1366      898779.21      907.87436      897182.9       899625.84      899528.89      3717.487      -1912.1535     -2469.2488      6553.6794      11084.503      17638.182      132433.67      40.456609      40.456609      80.913218          16040 
    130000   3201.1861      894343.35      915.50406      893820.11      892859.26      896350.69     -1390.6842     -94.689268     -1564.6624      6636.71        11012.93       17649.64       132561.14      40.469585      40.469585      80.939169          16040 
    131000   3222.6849      905263.01      923.13416      902702.35      906055.16      907031.51      363.63581      1037.1213      593.11119      6681.2816      11058.383      17739.664      132245.77      40.437466      40.437466      80.874933          16040 
    132000   3190.9907      898237.5       930.76443      897213.33      899227.6       898271.58     -1337.3869      1557.2619     -2231.5617      6615.573       11112.412      17727.985      132375.77      40.450712      40.450712      80.901424          16040 
    133000   3167.5662      898600.89      938.3963       897484.2       899428.87      898889.6       2787.9034     -354.9741       3283.1467      6567.0091      11035.611      17602.62       132367.35      40.449855      40.449855      80.899709          16040 
    134000   3189.6295      904340.33      946.02381      904160.05      903621.34      905239.61      1467.3899      2115.4957      582.26898      6612.7509      11122.377      17735.128      132274.27      40.44037       40.44037       80.880741          16040 
    135000   3183.896       895597.88      953.65334      895944.08      892613.98      898235.57      3618.7181     -737.19208     -1180.2589      6600.8642      11099.42       17700.284      132530.1       40.466426      40.466426      80.932852          16040 
    136000   3177.2824      895520.64      961.28118      895714.27      894256.19      896591.47      51.050284      2195.9187     -2999.288       6587.1529      10939.918      17527.071      132498.27      40.463186      40.463186      80.926372          16040 
    137000   3177.1943      906890.11      968.91031      908769.51      907369.55      904531.26      4755.5389      697.25076     -2928.6318      6586.9703      11063.474      17650.444      132209.08      40.433726      40.433726      80.867453          16040 
    138000   3207.1553      901094.23      976.53956      899972.35      901722.08      901588.27     -2476.2766      151.7898       1747.8393      6649.0855      10994.522      17643.608      132390.2       40.452181      40.452181      80.904362          16040 
    139000   3149.1752      898783.81      984.16732      898850.09      898286.41      899214.93      545.90379      3394.5733      259.5765       6528.8809      10970.937      17499.817      132454.81      40.458761      40.458761      80.917523          16040 
    140000   3200.6813      900232.77      991.79487      899455.91      899462.92      901779.49     -7684.9953     -4812.8558      1355.983       6635.6636      11027.307      17662.97       132373.62      40.450493      40.450493      80.900986          16040 
    141000   3187.8168      899792.24      999.42352      898868.02      900501.08      900007.61      1073.5992      3518.728       4877.0446      6608.9929      10974.252      17583.245      132433.12      40.456553      40.456553      80.913106          16040 
    142000   3186.8501      897690.89      1007.0489      896495         898791.75      897785.91     -3163.2085      5106.9622      4260.4126      6606.9887      11074.735      17681.724      132487.65      40.462105      40.462105      80.92421           16040 
    143000   3194.822       911018.14      1014.6709      910525.33      912138.86      910390.23     -1365.5839     -1475.6751      2474.8803      6623.516       11192.819      17816.335      132091.67      40.421753      40.421753      80.843507          16040 
    144000   3178.9488      896449.17      1022.2942      897243.4       896994.97      895109.16     -456.94531     -2277.7321      1207.1173      6590.6076      10941.625      17532.232      132492.9       40.462639      40.462639      80.925277          16040 
    145000   3216.8257      900300.48      1029.917       900622.33      900749.08      899530.04     -2393.0125     -1354.009      -4289.6955      6669.1341      11026.168      17695.302      132408.83      40.454079      40.454079      80.908157          16040 
    146000   3200.8229      900556.62      1037.5433      899521.66      899326.01      902822.19      910.43108      171.32458      1337.6408      6635.957       11000.079      17636.036      132375.39      40.450673      40.450673      80.901346          16040 
    147000   3200.1938      898768.49      1045.1679      898430.01      899669.54      898205.93      1424.8407      4970.7869     -3426.6249      6634.6529      10905.326      17539.979      132376.7       40.450807      40.450807      80.901614          16040 
    148000   3173.7044      897785.13      1052.7956      898712.29      897421.98      897221.13     -3346.4364      8175.9651     -1387.0486      6579.735       11021.616      17601.351      132467.4       40.460043      40.460043      80.920087          16040 
    149000   3220.8694      904683.58      1060.4241      905014.41      904290.29      904746.04      356.93262      537.02953      298.91246      6677.5177      11022.386      17699.904      132268.29      40.439761      40.439761      80.879522          16040 
    150000   3212.1313      891559.56      1068.0469      893629.89      892930.48      888118.31     -591.77449      874.86557      493.83203      6659.4017      10854.709      17514.111      132632.4       40.476834      40.476834      80.953669          16040 
    151000   3230.1477      899632.52      1075.6687      900663.93      897424.36      900809.26     -2103.8605      3123.8935      368.00363      6696.7534      10955.444      17652.198      132413.89      40.454595      40.454595      80.909189          16040 
    152000   3166.9516      904747.39      1083.2917      903203.59      902896.22      908142.35     -2069.1975      405.50293      259.13426      6565.7351      11021.33       17587.065      132313.82      40.444401      40.444401      80.888802          16040 
    153000   3197.572       899044.32      1090.9166      898251.59      898783.75      900097.61      6651.7117     -1676.0868      4734.1279      6629.2173      11008.203      17637.42       132446.61      40.457926      40.457926      80.915853          16040 
    154000   3151.0691      897861.24      1098.5404      897827.56      896772.7       898983.45      2316.4089     -4895.8525     -6804.7211      6532.8074      10934.377      17467.184      132437.19      40.456967      40.456967      80.913933          16040 
    155000   3202.2064      903447.57      1106.166       904534.84      901576.95      904230.93     -268.03496      2072.5044     -2592.0608      6638.8254      11108.352      17747.178      132289.31      40.441904      40.441904      80.883807          16040 
    156000   3213.7601      898318.01      1113.7954      900588.36      898163.74      896201.92      5171.9522     -908.05832      2848.8471      6662.7786      10958.089      17620.868      132443.98      40.457659      40.457659      80.915317          16040 
    157000   3195.7875      893693.87      1121.4266      896415.12      893063.83      891602.67     -1312.1858     -785.59711      2024.5956      6625.5178      10921.748      17547.266      132539.84      40.467417      40.467417      80.934834          16040 
    158000   3188.1132      905412.64      1129.0559      904953.01      905329.76      905955.16      609.58326      2118.4581     -3764.5036      6609.6074      11059.888      17669.495      132237.28      40.4366        40.4366        80.8732            16040 
    159000   3214.0541      900395.69      1136.6835      901133.36      901353.6       898700.09      1659.5334     -4610.4215      1358.2662      6663.3882      11028.63       17692.018      132394.92      40.452663      40.452663      80.905326          16040 
    160000   3192.3002      898145.89      1144.3154      897170.68      897388.55      899878.46     -451.82234      504.85787     -2861.0526      6618.2878      10954.749      17573.037      132424.36      40.455661      40.455661      80.911322          16040 
    161000   3215.2637      901525.09      1151.9461      900720.2       902649.84      901205.23     -141.27136      1581.0444     -1022.0142      6665.8958      10999.063      17664.959      132317.74      40.4448        40.4448        80.889601          16040 
    162000   3198.5249      899331.09      1159.5765      898844.49      899562.02      899586.76     -1451.3554     -2884.0613     -2861.0769      6631.1928      11010.692      17641.885      132421.51      40.45537       40.45537       80.910741          16040 
    163000   3237.5283      892700.63      1167.2064      891893.6       893166.13      893042.16     -1102.4883      1659.866      -3997.9998      6712.0549      10932.018      17644.073      132609.67      40.474523      40.474523      80.949045          16040 
    164000   3207.2049      910676.63      1174.836       911161         908762.66      912106.23     -385.05889     -2517.3224     -265.83262      6649.1884      11102.645      17751.834      132114.39      40.42407       40.42407       80.848141          16040 
    165000   3252.9014      899291.61      1182.4576      898976.83      898268.01      900629.98     -1649.917       3131.1733      4031.1243      6743.9264      10999.08       17743.006      132442.48      40.457506      40.457506      80.915012          16040 
    166000   3183.6304      897419.13      1190.0808      899222.72      895550.12      897484.56      4089.4368     -3396.865       3803.8431      6600.3136      10983.361      17583.674      132473.76      40.46069       40.46069       80.921381          16040 
    167000   3215.3464      900518.59      1197.706       897967.13      900454.66      903133.99     -1098.3903      572.64229      1868.283       6666.0673      10983.898      17649.965      132396.65      40.452838      40.452838      80.905676          16040 
    168000   3234.7148      899588.28      1205.3274      900402.81      900693.85      897668.17      396.3305       789.51886     -2997.2386      6706.2219      10980.659      17686.881      132430.04      40.456239      40.456239      80.912479          16040 
    169000   3184.7428      897393.72      1212.9533      898974.77      895907.8       897298.6       1696.862      -204.73096     -4773.4765      6602.6199      10901.037      17503.657      132490.92      40.462437      40.462437      80.924874          16040 
    170000   3190.2041      904371.91      1220.5812      901714.65      907176.31      904224.78     -3684.4299      2324.6275      10.297837      6613.9422      11052.175      17666.117      132287.17      40.441685      40.441685      80.883371          16040 
    171000   3167.3641      899109.87      1228.2117      898428.99      900794.29      898106.33      1256.0155     -2211.4721     -1019.1763      6566.5902      10949.553      17516.143      132380.12      40.451155      40.451155      80.90231           16040 
    172000   3246.8799      895392.08      1235.8403      895329.25      896552.09      894294.92     -2586.6019      859.3679       1532.2457      6731.4426      10866.957      17598.399      132522.67      40.465669      40.465669      80.931339          16040 
    173000   3213.5014      902812.84      1243.4706      902074.48      900212.46      906151.58      3058.3574     -2465.1059     -1507.5657      6662.2423      11112.365      17774.607      132271.81      40.44012       40.44012       80.88024           16040 
    174000   3223.5968      896966.63      1251.1006      898573.05      893787.69      898539.15     -2899.4861      2767.0862      1754.21        6683.172       10861.013      17544.185      132458.67      40.459155      40.459155      80.918309          16040 
    175000   3197.2971      899707.98      1258.7319      897951.94      900231.17      900940.81      1186.9581     -2821.2346      2016.0781      6628.6474      11001.548      17630.195      132449.6       40.45823       40.45823       80.916461          16040 
    176000   3209.7777      905008.55      1266.3602      907087.98      904531.51      903406.17     -2153.5648      1780.5973      105.35791      6654.5222      11021.017      17675.539      132250.58      40.437956      40.437956      80.875911          16040 
    177000   3177.6443      893262.6       1273.9917      893175.83      893478.41      893133.55      273.71717      28.781489      2050.8862      6587.9031      10959.451      17547.354      132628.77      40.476465      40.476465      80.952931          16040 
    178000   3169.3695      901543.25      1281.6207      902465.62      900818.53      901345.6       472.007       -1882.8188      2417.4743      6570.7478      11001.98       17572.728      132323.14      40.44535       40.44535       80.890701          16040 
    179000   3216.4458      903656.84      1289.2493      900956.7       903462.94      906550.86      80.286226      1225.3366     -874.85955      6668.3465      11001.872      17670.218      132350.86      40.448174      40.448174      80.896348          16040 
    180000   3161.385       896575.71      1296.8751      895723.38      897010.78      896992.97     -1877.5182     -5662.1574      2436.6512      6554.1943      10910.533      17464.727      132481.91      40.46152       40.46152       80.923039          16040 
    181000   3224.8927      904702.54      1304.5038      904527.78      905005.99      904573.85      165.14735     -2582.7207      1532.5956      6685.8588      11064.557      17750.416      132289.6       40.441932      40.441932      80.883865          16040 
    182000   3190.2477      897769.01      1312.1322      896496.79      897663.94      899146.31     -3029.0843     -1403.7071      2538.8414      6614.0326      10917.683      17531.716      132444.43      40.457704      40.457704      80.915408          16040 
    183000   3193.6455      892190.81      1319.7617      892661.98      892870.34      891040.11     -1040.0468      2266.5239     -786.55111      6621.077       10990.496      17611.573      132597.09      40.473243      40.473243      80.946486          16040 
    184000   3198.75        906333.33      1327.3883      908796.4       902634.44      907569.14      1112.906      -2273.8421     -1186.8554      6631.6595      11008.168      17639.827      132267.14      40.439644      40.439644      80.879288          16040 
    185000   3235.0416      897270.91      1335.0174      898437.76      898706.22      894668.75     -1347.3789      20.683913     -457.4556       6706.8995      10924.972      17631.872      132480.75      40.461402      40.461402      80.922803          16040 
    186000   3184.1223      896790.15      1342.6476      899183.04      894069.96      897117.47     -521.97911     -2031.9112      831.88505      6601.3334      10903.934      17505.267      132492.08      40.462555      40.462555      80.92511           16040 
    187000   3187.6482      899795.31      1350.2739      899018.5       899939.15      900428.29     -4.6015963      3687.9875     -3471.6755      6608.6433      11058.138      17666.781      132392.52      40.452418      40.452418      80.904836          16040 
    188000   3220.5039      900570.04      1357.8933      898485.7       903087.61      900136.81     -5006.7061      2491.643      -1279.8557      6676.7598      10919.14       17595.9        132395.84      40.452756      40.452756      80.905511          16040 
    189000   3234.3485      899509.31      1365.5205      899272.64      896938.96      902316.32     -1495.5537      3588.377       1865.3236      6705.4624      11006.194      17711.656      132446.94      40.457959      40.457959      80.915919          16040 
    190000   3210.8573      897904.52      1373.1434      897098.29      899331.34      897283.91     -1029.8799     -864.81546     -634.42645      6656.7605      10852.637      17509.398      132473.39      40.460653      40.460653      80.921306          16040 
    191000   3190.5655      910520.47      1380.7698      909920.17      910310.16      911331.08      4468.2821     -835.10197     -248.37405      6614.6914      11145.203      17759.895      132071.32      40.419677      40.419677      80.839353          16040 
    192000   3154.2541      895013.19      1388.3973      894893.64      895732.03      894413.9      -975.18998     -2734.4352     -593.53831      6539.4106      10919.894      17459.305      132536.11      40.467038      40.467038      80.934075          16040 
    193000   3187.8139      901342.97      1396.0229      898424.23      904174.93      901429.76     -1117.141       1197.5479     -3276.185       6608.9869      11046.447      17655.434      132362.37      40.449346      40.449346      80.898693          16040 
    194000   3227.9116      900640.1       1403.6539      900393.66      899730.5       901796.14      4991.3128      3013.2849     -1656.8874      6692.1175      10911.353      17603.471      132450.83      40.458356      40.458356      80.916711          16040 
    195000   3194.4331      900568.98      1411.2842      899004.79      902085.2       900616.94      644.70658      100.45993      771.8577       6622.7097      10960.853      17583.563      132438.77      40.457127      40.457127      80.914255          16040 
    196000   3212.0621      899540.61      1418.9162      899523.26      900197.07      898901.51      2642.738       2477.5431     -997.3364       6659.2582      10936.13       17595.388      132362.9       40.449401      40.449401      80.898802          16040 
    197000   3203.6192      899986.18      1426.5455      898354.16      901134         900470.37      1387.3439      2522.7375      3748.9126      6641.7543      10938.214      17579.969      132408.93      40.454089      40.454089      80.908178          16040 
    198000   3217.3788      891707.32      1434.1743      892873.44      893288.06      888960.45     -1529.3754      1738.6375     -15.946305      6670.2809      10969.317      17639.598      132639.77      40.477585      40.477585      80.95517           16040 
    199000   3226.0154      901456.68      1441.8066      901197.82      901318.67      901853.54     -1662.7369      3515.78        326.20589      6688.1864      10921.972      17610.159      132345.21      40.447599      40.447599      80.895197          16040 
    200000   3235.1637      903034.42      1449.443       901758.17      906190.41      901154.67      3333.6672      986.89911     -5416.1021      6707.1526      11042.377      17749.53       132355.4       40.448637      40.448637      80.897274          16040 
    201000   3213.3587      898345.18      1457.0705      899025.94      897802.85      898206.76     -3088.102      -1660.8108     -2443.8336      6661.9463      10901.247      17563.193      132433.02      40.456542      40.456542      80.913084          16040 
    202000   3242.0943      900520.5       1464.6985      898966.24      901112.27      901482.98      353.26221     -780.18655      3308.5176      6721.5211      10935.878      17657.399      132404.67      40.453656      40.453656      80.907312          16040 
    203000   3204.7162      903232.99      1472.3274      901885.64      904344.44      903468.9       1867.9902      2691.3045      772.5034       6644.0288      10930.878      17574.907      132307.34      40.44374       40.44374       80.88748           16040 
    204000   3206.6858      896612.47      1479.9488      897566.75      897245.45      895025.2       2536.2082     -5507.9971     -3556.2137      6648.1122      10955.221      17603.333      132506.06      40.463978      40.463978      80.927957          16040 
    205000   3200.3087      902912.33      1487.5744      899250.65      903044.91      906441.41      17.04012      -3606.4223      1502.8417      6634.8912      11057.443      17692.334      132323.07      40.445344      40.445344      80.890687          16040 
    206000   3196.8126      902159.52      1495.1992      901286.06      900862.74      904329.75     -5961.6715      897.98082     -2609.022       6627.6429      10976.626      17604.269      132345.95      40.447674      40.447674      80.895348          16040 
    207000   3153.334       891151.79      1502.8258      891548.28      890688.21      891218.89      319.43802      2854.8763      3050.8782      6537.503       10811.304      17348.807      132582.54      40.471762      40.471762      80.943524          16040 
    208000   3219.2459      901898.01      1510.4498      901628.84      902200.06      901865.11      2044.9061     -925.69916      3575.9185      6674.1517      10969.7        17643.851      132331.1       40.446161      40.446161      80.892322          16040 
    209000   3191.5304      900770.59      1518.0749      902020.47      901173.83      899117.48      605.59104      1708.6031     -14.95597       6616.6918      10955.125      17571.817      132356.86      40.448785      40.448785      80.897571          16040 
    210000   3213.4429      896810.1       1525.7006      896950.97      897034.11      896445.21     -3220.7201      778.8404       674.96101      6662.1209      10922.63       17584.751      132525.33      40.46594       40.46594       80.93188           16040 
    211000   3192.2552      898962.61      1533.3277      899867.21      899316         897704.62     -252.93783     -489.33489      2734.3227      6618.1946      10935.075      17553.269      132416         40.454809      40.454809      80.909619          16040 
    212000   3201.2692      901015.46      1540.9571      901341.41      900517.34      901187.63     -220.50241      3367.793       4726.1427      6636.8824      10947.125      17584.007      132392.69      40.452435      40.452435      80.90487           16040 
    213000   3184.7362      892524         1548.5843      893231.63      892168.59      892171.77      1547.3805     -35.756409     -3041.5029      6602.6062      10878.782      17481.388      132574.95      40.470989      40.470989      80.941979          16040 
    214000   3195.0284      907194.88      1556.2123      907487.58      907220.87      906876.2      -287.38004      4686.3092      5096.4827      6623.9439      11086.782      17710.726      132180.01      40.430762      40.430762      80.861523          16040 
    215000   3187.6591      902181.87      1563.843       903017.04      899633.07      903895.51     -1522.5042     -3403.433       590.10047      6608.6659      11041.279      17649.945      132331.3       40.446182      40.446182      80.892363          16040 
    216000   3188.9823      896395.3       1571.4713      896566.27      898994.04      893625.58     -998.11095     -874.61782     -1557.8777      6611.4091      10862.966      17474.375      132464.63      40.459761      40.459761      80.919522          16040 
    217000   3217.4773      900336.42      1579.1015      900552.99      898567.72      901888.53      108.21191     -1388.4135      2020.889       6670.485       10967.865      17638.35       132379.22      40.451064      40.451064      80.902127          16040 
    218000   3209.8829      899735.95      1586.731       899812.11      900925.89      898469.86     -374.37615     -1718.8919      150.63455      6654.7404      10924.022      17578.763      132388.97      40.452056      40.452056      80.904113          16040 
    219000   3221.0706      901130.1       1594.3594      900851.6       902175.91      900362.78     -2836.9402      4311.2916      284.39678      6677.9346      10924.569      17602.504      132367.91      40.449912      40.449912      80.899823          16040 
    220000   3210.5428      893348.44      1601.988       890398.82      894470.33      895176.16     -1833.7089     -1450.0933     -886.96406      6656.1084      10926.991      17583.1        132587.65      40.472282      40.472282      80.944565          16040 
    221000   3218.4754      904440.48      1609.6155      903907.87      903185.14      906228.44      2587.7272     -325.58413     -1035.9963      6672.5544      10921.971      17594.526      132289.88      40.441961      40.441961      80.883922          16040 
    222000   3226.6739      905102.98      1617.2427      903229.32      906985.06      905094.56     -2014.2204      1715.1916      3698.8999      6689.5516      10993.878      17683.43       132271.84      40.440123      40.440123      80.880247          16040 
    223000   3164.6457      896633.44      1624.8739      895958.97      896179.49      897761.85      535.49042     -4978.4554     -1890.8986      6560.9544      10890.764      17451.719      132485.68      40.461904      40.461904      80.923809          16040 
    224000   3210.0965      901280.59      1632.5041      901559.94      899471.56      902810.26      505.99727      2019.2083     -811.11315      6655.1832      10972.242      17627.425      132382.42      40.451389      40.451389      80.902778          16040 
    225000   3202.7414      903776.85      1640.1324      905859.72      902627.02      902843.81      4265.7636      148.82629     -2337.8714      6639.9345      10949.469      17589.403      132364.55      40.449569      40.449569      80.899139          16040 
    226000   3219.0077      901595.9       1647.7614      901631.33      901889.47      901266.91      6787.2895     -4326.2979     -526.92363      6673.658       10995.034      17668.692      132385.05      40.451657      40.451657      80.903315          16040 
    227000   3177.8183      894512.57      1655.3884      891898.76      895424.42      896214.54      1650.1965      2292.7042      2218.225       6588.2639      10868.635      17456.899      132537.6       40.467189      40.467189      80.934378          16040 
    228000   3224.9056      901810.79      1663.0147      903764.53      899401.07      902266.79      1437.0617     -2277.0194     -1554.7709      6685.8854      10991.56       17677.446      132347.73      40.447856      40.447856      80.895711          16040 
    229000   3160.226       903552.79      1670.6319      901456.62      903885.62      905316.12     -535.93177      6135.6686     -1112.0262      6551.7915      10996.079      17547.871      132269.95      40.43993       40.43993       80.87986           16040 
    230000   3207.8405      897319.98      1678.2507      899172.89      897690.86      895096.19      146.56377     -1296.2777     -3104.3514      6650.5061      10939.482      17589.988      132549.77      40.468427      40.468427      80.936855          16040 
    231000   3214.4382      900903.86      1685.8739      900425.52      901402.32      900883.75      287.05826     -2142.619      -451.54713      6664.1843      11026.156      17690.34       132387.34      40.451891      40.451891      80.903781          16040 
    232000   3180.1626      900536.38      1693.4912      900687.68      900876.23      900045.22      504.93776      4337.6073     -417.48795      6593.124       10931.671      17524.795      132369.66      40.450089      40.450089      80.900178          16040 
    233000   3233.0223      898303.58      1701.1128      899436.82      898700.99      896772.92     -1728.7798      7447.7656      1741.5693      6702.7131      10900.046      17602.759      132435.07      40.456751      40.456751      80.913502          16040 
    234000   3184.4125      899555.58      1708.7336      899901.85      900092.46      898672.44     -3311.6692      477.31054      7.5159263      6601.935       10913.422      17515.357      132424.35      40.45566       40.45566       80.91132           16040 
    235000   3193.7232      902849.69      1716.3581      901011.67      905464.76      902072.64      4368.3935      4955.507      -1905.1962      6621.2381      11005.488      17626.726      132356.7       40.448769      40.448769      80.897538          16040 
    236000   3237.1801      902900.41      1723.9834      902386.32      903762.54      902552.37      1297.4033     -1902.8661      3112.9749      6711.333       10925.386      17636.719      132387.46      40.451903      40.451903      80.903805          16040 
    237000   3188.0106      892747.58      1731.6098      892709.19      892419.15      893114.4      -1621.5396      1387.6975      1506.6293      6609.3947      10843.689      17453.083      132574.91      40.470986      40.470986      80.941972          16040 
    238000   3237.3679      903606.71      1739.2332      904165.79      904555.78      902098.57     -1906.8336     -3110.5996     -924.9336       6711.7223      10988.642      17700.364      132334.04      40.446461      40.446461      80.892922          16040 
    239000   3181.6956      898836.57      1746.8584      899746.23      899100.53      897662.95     -1612.2726     -3279.8344     -852.3108       6596.3023      10942.824      17539.126      132428.84      40.456116      40.456116      80.912233          16040 
    240000   3209.9412      899577.6       1754.4847      899681.37      900448.66      898602.79     -2104.4709      4720.0382     -321.35729      6654.8613      10990.751      17645.612      132455.61      40.458843      40.458843      80.917686          16040 
    241000   3211.3138      900673.56      1762.1101      898364.64      902017.65      901638.39      3910.8748     -2208.2652     -3600.0107      6657.7069      10879.502      17537.209      132370.54      40.450179      40.450179      80.900358          16040 
    242000   3204.5235      899598.9       1769.7369      900728.33      898774.09      899294.29     -2822.1653     -895.48966      462.64677      6643.6292      10933.971      17577.6        132419.53      40.455168      40.455168      80.910336          16040 
    243000   3213.1473      896200.05      1777.3632      895819.5       895733.65      897047.01      7287.3132     -35.168149     -1094.3155      6661.5082      10821.362      17482.87       132526.92      40.466101      40.466101      80.932203          16040 
    244000   3156.3719      910941.08      1784.9902      911535.35      909874.95      911412.95      5909.9108     -2041.9758      2129.822       6543.8012      11120.249      17664.05       132074.45      40.419996      40.419996      80.839992          16040 
    245000   3174.0854      897837.53      1792.6171      897653.43      897174.42      898684.76      2246.7776      4735.2623      2340.4711      6580.5248      10977.37       17557.895      132450.3       40.458302      40.458302      80.916604          16040 
    246000   3198.1164      899436.06      1800.2452      898039.88      900667.58      899600.74      558.59997      1683.7273     -3171.7828      6630.346       10899.201      17529.547      132405.24      40.453713      40.453713      80.907427          16040 
    247000   3227.2908      899558.73      1807.8697      900036.58      901179.68      897459.94      1597.2989      2848.9113      1909.1353      6690.8306      10981.042      17671.872      132390.63      40.452225      40.452225      80.90445           16040 
    248000   3191.9188      900217.47      1815.4964      898964.26      899645.53      902042.62     -1170.2082      1839.3923      4084.9524      6617.4971      10979.784      17597.281      132415.4       40.454748      40.454748      80.909496          16040 
    249000   3168.7154      899603.82      1823.1218      898658.2       899109.85      901043.4       2217.9399      928.25047      291.98772      6569.3918      10964.851      17534.243      132370.44      40.450169      40.450169      80.900338          16040 
    250000   3235.1838      900734.23      1830.7447      900831.94      899427.36      901943.4      -2910.3414     -1631.1524      4236.4038      6707.1943      10870.742      17577.936      132423.81      40.455604      40.455604      80.911208          16040 
    251000   3165.6555      902165.81      1838.3704      901666.37      900944.59      903886.46     -29.253559      2404.949      -5078.1369      6563.048       10945.41       17508.458      132307.53      40.44376       40.44376       80.88752           16040 
    252000   3201.9311      909477.72      1845.998       909433.4       907907.71      911092.06     -1156.6443     -5304.9058     -1355.317       6638.2546      11109.91       17748.165      132177.22      40.430478      40.430478      80.860956          16040 
    253000   3143.0951      893715.78      1853.6242      892726.68      894972.33      893448.32     -284.5762       759.0129       5392.1031      6516.2756      10844.345      17360.621      132510.51      40.464431      40.464431      80.928863          16040 
    254000   3221.194       901670.59      1861.2504      902410.51      901578.25      901023        -4019.118      -3053.304       1812.8482      6678.1905      10961.834      17640.024      132393.09      40.452476      40.452476      80.904951          16040 
    255000   3197.3649      901489.81      1868.8775      898870.19      901706.78      903892.46      2446.7222     -3206.0741      365.36314      6628.7879      10940.452      17569.24       132312.22      40.444237      40.444237      80.888475          16040 
    256000   3225.2684      897812.17      1876.5031      897757.34      897763.82      897915.36      51.506166      2213.4428     -353.9154       6686.6377      10907.076      17593.714      132476.1       40.460929      40.460929      80.921858          16040 
    257000   3174.5749      898377.32      1884.1288      898687.1       897134.54      899310.32      1377.7647      1385.019      -1329.954       6581.5398      10961.646      17543.186      132425.24      40.45575       40.45575       80.9115            16040 
    258000   3223.9341      909291.23      1891.7505      908439.01      910302.24      909132.44     -849.53971      2061.5324     -4016.4767      6683.8714      11069.417      17753.289      132197.08      40.432502      40.432502      80.865004          16040 
    259000   3191.8594      900208.98      1899.3699      901650.28      898182.46      900794.22     -1034.5986     -970.98275      4345.521       6617.3741      10898.115      17515.49       132394.72      40.452642      40.452642      80.905284          16040 
    260000   3180.9784      896095.71      1906.9949      895038.04      897220.1       896028.97     -1131.1178      3623.4398     -238.97317      6594.8155      11005.378      17600.193      132497.51      40.463108      40.463108      80.926215          16040 
    261000   3160.85        902207.15      1914.6168      901268.68      904427.27      900925.5       3072.0449     -3735.6262      3084.5969      6553.0851      10915.702      17468.787      132316.36      40.444659      40.444659      80.889318          16040 
    262000   3204.6437      901087.79      1922.2398      897734.88      903510.54      902017.96     -363.45374     -3661.0833     -6229.4901      6643.8785      11014.418      17658.296      132409.93      40.454191      40.454191      80.908383          16040 
    263000   3181.9931      898838.7       1929.8652      897065.67      900800.87      898649.56      2532.8387     -4288.5594      2845.4429      6596.9192      10935.319      17532.238      132405.79      40.453769      40.453769      80.907538          16040 
    264000   3227.6108      904168.06      1937.4913      905525.42      903713.21      903265.55     -2753.3494     -1301.0161     -456.95015      6691.4939      11060.115      17751.609      132259.65      40.438881      40.438881      80.877762          16040 
    265000   3208.0114      890422.27      1945.1171      890095.97      889655.57      891515.28     -683.10876      343.79404      4021.0831      6650.8603      10785.62       17436.48       132608.18      40.474371      40.474371      80.948742          16040 
    266000   3177.4038      904952.25      1952.7468      905021.03      903907.84      905927.88      2765.8775     -2258.2207      3166.5376      6587.4045      11022.09       17609.494      132308.24      40.443832      40.443832      80.887663          16040 
    267000   3203.0924      902467.51      1960.372       900606.25      903210.08      903586.19     -1467.7648     -186.11045     -4089.3664      6640.6623      10910.228      17550.89       132323.66      40.445403      40.445403      80.890807          16040 
    268000   3211.9525      896167.41      1967.9992      896918.03      895679.39      895904.82      1783.3733      4495.9328     -4669.7563      6659.0311      10872.311      17531.342      132513.65      40.464751      40.464751      80.929502          16040 
    269000   3222.4358      901921.41      1975.6226      900032.47      902511.17      903220.59      5028.3611     -657.14744      758.54331      6680.7651      10919.709      17600.474      132353.99      40.448493      40.448493      80.896986          16040 
    270000   3190.475       898377.5       1983.2528      897898.61      897429.44      899804.45     -1479.971       2519.2378      859.61863      6614.5038      10976.521      17591.025      132482.03      40.461533      40.461533      80.923065          16040 
    271000   3187.1598      898463.53      1990.8776      898765.82      898726.28      897898.5       3278.6539      736.70524     -5319.424       6607.6306      10887.895      17495.526      132431.05      40.456341      40.456341      80.912683          16040 
    272000   3222.7311      908592.02      1998.5038      910128.74      908129.73      907517.59     -355.04572      271.55327      897.25107      6681.3773      11030.296      17711.674      132222.71      40.435116      40.435116      80.870232          16040 
    273000   3192.9397      897985.61      2006.128       899077.05      898620.6       896259.19      2347.6295      1886.931      -2784.7776      6619.6137      10849.494      17469.107      132458.93      40.459181      40.459181      80.918362          16040 
    274000   3187.9001      898536.03      2013.7563      900997.41      899727.02      894883.66      3509.6322      4398.4305      1918.6008      6609.1655      11003.565      17612.73       132430.62      40.456298      40.456298      80.912595          16040 
    275000   3178.4776      902200.1       2021.3819      903217.36      902362.6       901020.34     -290.42283      3926.8709      2118.8174      6589.6308      10997.869      17587.5        132328.29      40.445875      40.445875      80.891749          16040 
    276000   3222.3052      903141.9       2029.0101      903989.77      902504.34      902931.59     -145.0807      -81.301779      647.2399       6680.4943      10933.997      17614.492      132317.57      40.444783      40.444783      80.889565          16040 
    277000   3233.0804      894121.36      2036.6319      893817.56      893969.68      894576.84     -864.93288     -2772.0181      9597.2337      6702.8335      10810.891      17513.724      132568.68      40.470352      40.470352      80.940703          16040 
    278000   3182.9118      906616.88      2044.2543      904829.04      907554.47      907467.13     -1255.0562     -2307.3554      520.39123      6598.8238      10985.706      17584.529      132269.76      40.439911      40.439911      80.879822          16040 
    279000   3203.7332      901293.49      2051.8771      900045.9       901206.47      902628.1      -1843.5143     -420.03724      2791.1711      6641.9907      10996.012      17638.003      132411.79      40.454381      40.454381      80.908761          16040 
    280000   3174.2899      894742.84      2059.499       895743.72      895407.66      893077.13     -4305.0304      2174.2825      3568.5137      6580.9487      10824.01       17404.959      132560.56      40.469525      40.469525      80.93905           16040 
    281000   3210.0939      902146.62      2067.1242      900454.36      904081.03      901904.45     -952.4208       572.09641      308.13065      6655.1778      10989.948      17645.126      132357.41      40.448841      40.448841      80.897682          16040 
    282000   3176.3643      898684.85      2074.7532      899152.46      898494.18      898407.9      -1263.582      -709.81131      236.3102       6585.2494      10860.731      17445.98       132413.67      40.454572      40.454572      80.909145          16040 
    283000   3208.9351      898941.38      2082.3805      894991.56      899231.82      902600.76     -3527.1318      1022.3541     -188.32458      6652.7753      10926.278      17579.053      132415.47      40.454755      40.454755      80.909509          16040 
    284000   3176.9489      900600.15      2090.0064      900335.02      897501.53      903963.9       3046.5749      1561.2019      2361.8286      6586.4615      10970.879      17557.341      132376.03      40.450739      40.450739      80.901477          16040 
    285000   3177.833       897643.87      2097.6341      898065.33      898677.43      896188.87      3159.0669     -3273.3313     -5071.0161      6588.2944      10899.954      17488.249      132455.4       40.458821      40.458821      80.917642          16040 
    286000   3215.9584      901043.03      2105.2663      900156.34      901528.87      901443.88     -326.60257     -1118.4247     -625.3822       6667.3361      10899.205      17566.541      132363.28      40.44944       40.44944       80.898879          16040 
[...]
   3930000   4498.4344      902374.39      7209.8721      939805.27      945653.91      821664         69527.218      49679.325      1065.2842      9326.1698      20401.481      29727.651      117146.88      39.044187      39.044187      76.845412          16040 
   3931000   4551.5466      896764.52      7217.5705      934363.79      940808.11      815121.67      73198.562      46053.098     -3320.2969      9436.2822      20265.183      29701.465      117192.5       39.049256      39.049256      76.855388          16040 
   3932000   4532.6906      903427.95      7225.2707      942101.84      949048.23      819133.79      76755.004      47918.056      517.05062      9397.1899      20348.366      29745.556      117112.59      39.040377      39.040377      76.837914          16040 
   3933000   4533.4474      900326.42      7232.9713      937747.87      945881.59      817349.8       74595.939      49424.638     -836.77978      9398.7588      20296.835      29695.594      117201.24      39.050226      39.050226      76.857298          16040 
   3934000   4538.7171      905202.94      7240.6739      944032.37      946989.33      824587.13      70007.682      46525.223      546.03072      9409.684       20400.216      29809.9        116997.27      39.027559      39.027559      76.812687          16040 
   3935000   4522.4779      885561.19      7248.3735      922306.08      928466.78      805910.7       71085.073      49652.113     -1315.0327      9376.0168      20164.446      29540.463      117479.52      39.081107      39.081107      76.918078          16040 
   3936000   4567.2531      904697.87      7256.0748      942002.82      949263.62      822827.18      70712.491      49808.899     -1327.7502      9468.8449      20320.232      29789.077      117034.67      39.031717      39.031717      76.82087           16040 
   3937000   4557.8398      895248.04      7263.772       928698.96      944845.29      812199.86      75647.529      44841.222      360.47177      9449.3292      20239.082      29688.411      117213.6       39.051599      39.051599      76.86              16040 
   3938000   4542.0678      901111.08      7271.4725      938258.79      944266.04      820808.4       69388.072      45878.791     -1559.8961      9416.6307      20311.533      29728.164      117141.71      39.043613      39.043613      76.844283          16040 
   3939000   4502.7902      900685.42      7279.1716      936731.49      944838.35      820486.42      71996.51       47426.987     -900.04038      9335.2003      20369.045      29704.246      117184.17      39.04833       39.04833       76.853567          16040 
   3940000   4512.3821      903580.92      7286.8726      941490.38      947549         821703.38      72797.745      50608.169     -2322.7429      9355.0863      20376.577      29731.664      117133.25      39.042673      39.042673      76.842433          16040 
   3941000   4521.7267      893785.74      7294.5723      931987.24      935866.65      813503.33      73555.327      51773.075     -4778.3035      9374.4594      20269.984      29644.443      117287.87      39.059845      39.059845      76.87623           16040 
   3942000   4538.926       907625.3       7302.2709      946669.55      950812.38      825393.99      73335.553      50842.987      31.721223      9410.1171      20408.415      29818.532      116975.11      39.025095      39.025095      76.807835          16040 
   3943000   4506.8175      899818.67      7309.9683      933731.65      943836.27      821888.08      69176.154      50903.531     -1252.5731      9343.5497      20341.128      29684.678      117212.44      39.05147       39.05147       76.859746          16040 
   3944000   4491.5916      903872.65      7317.6687      940262.07      944208.56      827147.31      70567.808      47938.876     -2167.0203      9311.9833      20439.211      29751.194      117093.26      39.03823       39.03823       76.833687          16040 
   3945000   4526.4287      898240.17      7325.3715      938919.82      939852.17      815948.52      72706.032      47180.125      2871.9785      9384.2078      20304.182      29688.39       117203.55      39.050482      39.050482      76.857803          16040 
   3946000   4521.9108      904234.49      7333.0731      941470.67      949780.52      821452.29      72891.245      49060.953     -2748.4395      9374.8411      20395.026      29769.867      117056.51      39.034145      39.034145      76.825648          16040 
   3947000   4496.0979      888211.99      7340.7747      924571.19      931618.71      808446.07      74276.616      49778.962     -1597.9917      9321.3258      20223.006      29544.332      117457.55      39.078672      39.078672      76.913284          16040 
   3948000   4530.0732      906225.47      7348.4803      946403.5       949052.76      823220.15      71480.832      50001.59      -3987.3265      9391.7635      20412.818      29804.581      116991.42      39.026909      39.026909      76.811406          16040 
   3949000   4517.1258      896423.93      7356.1817      935261.64      939565.94      814444.22      73909.801      50220.648      239.97499      9364.9209      20276.134      29641.055      117277.57      39.058701      39.058701      76.873979          16040 
   3950000   4529.1462      903985.89      7363.8848      943692.18      944858.82      823406.65      71526.718      51411.615     -5202.3557      9389.8415      20391.093      29780.935      117026.93      39.030857      39.030857      76.819176          16040 
   3951000   4503.6387      892245.21      7371.5876      929517.58      935583.18      811634.87      70989.102      47768.615     -463.65148      9336.9594      20292.176      29629.136      117296.78      39.060834      39.060834      76.878177          16040 
   3952000   4493.6949      905047.18      7379.2884      940081.18      948835.63      826224.73      69783.762      50806.405      1247.4948      9316.3438      20404.943      29721.287      117132.27      39.042564      39.042564      76.842219          16040 
   3953000   4529.6743      899625.72      7386.9878      936861.42      943836.88      818178.86      71441.796      52863.162      527.23338      9390.9365      20294.641      29685.577      117194.66      39.049494      39.049494      76.855858          16040 
   3954000   4524.8178      899323.48      7394.6913      934312.22      941148.49      822509.74      70480.006      44610.915      4668.383       9380.8679      20329.584      29710.452      117148.05      39.044318      39.044318      76.845669          16040 
   3955000   4521.3601      899338.94      7402.3937      937202.91      941181.17      819632.74      69874.125      51274.86      -1048.1002      9373.6993      20330.591      29704.29       117158.65      39.045494      39.045494      76.847986          16040 
   3956000   4534.9954      898112.86      7410.0955      936462.88      943216.25      814659.44      75148.538      45523.177     -680.19191      9401.9681      20286.37       29688.338      117185.28      39.048453      39.048453      76.853809          16040 
   3957000   4530.7938      898460.12      7417.7948      938601.56      939727.95      817050.85      73092.705      49578.124     -250.24958      9393.2574      20297.203      29690.461      117180.87      39.047963      39.047963      76.852845          16040 
   3958000   4504.2337      896915.97      7425.4955      932984.48      941821.35      815942.07      72947.469      42568.45       159.87841      9338.1928      20330.301      29668.494      117219.7       39.052276      39.052276      76.861332          16040 
   3959000   4531.6106      903295.83      7433.1967      942592.62      947049.31      820245.56      72941.965      48546.889     -1494.9154      9394.9507      20362.574      29757.525      117061.05      39.034649      39.034649      76.826641          16040 
   3960000   4526.8185      893771.56      7440.8975      933375.85      938222.78      809716.05      74242.873      50000.252     -3717.2491      9385.0158      20268.839      29653.855      117242.71      39.054831      39.054831      76.866361          16040 
   3961000   4533.4428      902486.47      7448.5992      940645.97      947884.57      818928.88      71723.079      45505.951      946.17962      9398.7494      20348.661      29747.41       117075.54      39.03626       39.03626       76.829812          16040 
   3962000   4509.6707      891695.58      7456.3009      929326.97      932469.52      813290.24      71551.186      50098.871     -104.85412      9349.4649      20227.398      29576.863      117377.93      39.06984       39.06984       76.895902          16040 
   3963000   4554.45        907631.02      7464.0047      944509.92      952238.05      826145.09      74619.403      51584.524     -2447.3571      9442.3016      20354.347      29796.648      116985.47      39.026247      39.026247      76.810104          16040 
   3964000   4565.3546      891103.28      7471.7046      927417.78      936062.18      809829.88      73419.123      46274.267      1697.3169      9464.9091      20142.102      29607.011      117322.2       39.063655      39.063655      76.88373           16040 
   3965000   4504.3821      903605.97      7479.4058      941785.61      944117.97      824914.34      73964.605      49721.495     -3486.3092      9338.5006      20404.532      29743.033      117078.2       39.036556      39.036556      76.830393          16040 
   3966000   4528.046       900909.73      7487.1099      935770.24      945960.58      820998.36      73058.108      48506.254      2246.6535      9387.5606      20309.62       29697.18       117158.78      39.045509      39.045509      76.848015          16040 
   3967000   4491.0414      900225.69      7494.809       938206.37      945121.34      817349.36      69572.109      46088.531      3727.5404      9310.8426      20363.216      29674.059      117198.25      39.049893      39.049893      76.856644          16040 
   3968000   4502.0929      899989.82      7502.5111      934094.03      945147.56      820727.87      70454.548      48555.914     -257.48455      9333.7545      20349.772      29683.527      117180.85      39.047961      39.047961      76.852841          16040 
   3969000   4519.1734      899133.48      7510.212       936583.98      940655.52      820160.92      73520.699      47651.535      582.12353      9369.166       20307.234      29676.4        117193.37      39.049352      39.049352      76.855578          16040 
   3970000   4517.9602      898865.01      7517.9162      934535.53      941757.27      820302.21      70237.784      50436.579      4917.7234      9366.6508      20313.764      29680.415      117185.96      39.048529      39.048529      76.853959          16040 
   3971000   4486.7345      905750.2       7525.6191      938864.1       950460.21      827926.31      70100.529      47063.91       746.00102      9301.9135      20430.821      29732.734      117092.44      39.038138      39.038138      76.833508          16040 
   3972000   4472.1848      896541.62      7533.3206      932104.76      936996.47      820523.63      73526.696      47714.731     -801.69003      9271.749       20352.229      29623.978      117283.98      39.059413      39.059413      76.87538           16040 
   3973000   4504.8542      897418.08      7541.0253      935864.96      938003.32      818385.97      70491.722      49887.025     -857.86081      9339.4793      20331.381      29670.861      117200.11      39.0501        39.0501        76.85705           16040 
   3974000   4529.7088      897482.5       7548.7308      933792.95      942154.9       816499.64      72740.685      45374.052      2338.5757      9391.008       20310.563      29701.571      117145.14      39.043994      39.043994      76.845033          16040 
   3975000   4490.6766      895436.4       7556.4338      931286.04      938076.58      816946.57      68629.607      47070.753      174.52599      9310.0862      20310.375      29620.461      117289.16      39.059988      39.059988      76.876512          16040 
   3976000   4498.2639      907918.1       7564.1344      948135.63      949187.49      826431.19      73339.281      52202.571     -1564.3762      9325.8163      20477.363      29803.179      116963.13      39.023762      39.023762      76.805213          16040 
   3977000   4509.2518      895808.08      7571.8368      933742.99      939752.71      813928.55      70337.811      49892.508      711.02072      9348.5964      20287.645      29636.241      117259.9       39.05674       39.05674       76.870118          16040 
   3978000   4498.4517      900827.1       7579.5405      937863.02      945842.33      818775.96      71570.569      52789.946     -1637.7306      9326.2056      20361.065      29687.271      117168.86      39.046629      39.046629      76.850219          16040 
   3979000   4513.5923      902843.62      7587.2433      939031.14      946197.37      823302.36      70970.529      49279.69      -144.91396      9357.5951      20350.758      29708.353      117129.96      39.042307      39.042307      76.841713          16040 
   3980000   4519.7303      895344.86      7594.9475      934577.39      939245.02      812212.15      73612.297      49398.221      1275.3404      9370.3206      20284.356      29654.677      117220.92      39.052411      39.052411      76.861599          16040 
   3981000   4559.8336      899608.31      7602.6499      936470.52      943222.89      819131.53      69341.839      49331.036      705.09547      9453.4628      20275.083      29728.546      117087.09      39.037544      39.037544      76.832338          16040 
   3982000   4479.149       897723.76      7610.353       937903.9       940141.09      815126.31      69778.303      52695.585      873.77802      9286.1872      20370.513      29656.701      117214.25      39.05167       39.05167       76.860141          16040 
   3983000   4491.649       908889.95      7618.0567      946210.21      951486.57      828973.07      70372.007      47397.336     -3923.2337      9312.1023      20477.924      29790.026      116976.5       39.02525       39.02525       76.808141          16040 
   3984000   4492.9654      890365.06      7625.7616      927745.13      936172.85      807177.18      73177.337      51112.608      468.5118       9314.8314      20255.304      29570.135      117365.68      39.06848       39.06848       76.893226          16040 
   3985000   4504.1347      904260.42      7633.4655      943213.08      947406.05      822162.15      70729.532      50929.343     -4065.7075      9337.9877      20392.12       29730.107      117078.68      39.036609      39.036609      76.830497          16040 
   3986000   4496.9334      897942.76      7641.1685      934097.25      939033.2       820697.84      75806.952      50668.047     -1592.2096      9323.0579      20317.637      29640.695      117237.52      39.054254      39.054254      76.865227          16040 
   3987000   4510.7788      904285.65      7648.8709      944581.54      947401.52      820873.9       72638.933      46600.53      -4121.014       9351.7622      20387.524      29739.286      117060.58      39.034597      39.034597      76.826538          16040 
   3988000   4518.8342      890927.77      7656.574       928178.5       935576.93      809027.89      72134.268      53585.617     -392.9677       9368.4627      20211.379      29579.841      117344.65      39.066147      39.066147      76.888633          16040 
   3989000   4538.8028      910103.14      7664.2773      948470.26      954526.71      827312.45      70944.611      55392.826      329.90984      9409.8618      20422.529      29832.391      116895.98      39.016293      39.016293      76.790512          16040 
   3990000   4485.6126      893781.34      7671.978       931272.47      936292.43      813779.12      71259.307      53255.037      707.45985      9299.5875      20283.088      29582.675      117339.83      39.065612      39.065612      76.887581          16040 
   3991000   4532.809       905286.98      7679.6803      942796.07      949467.84      823597.02      72228.123      44994.187      1801.0715      9397.4354      20392.212      29789.647      116969.75      39.024499      39.024499      76.806664          16040 
   3992000   4507.3378      897329.21      7687.3839      936771.75      937672.95      817542.92      72224.18       51158.179      615.30419      9344.6283      20280.529      29625.158      117262.1       39.056983      39.056983      76.870598          16040 
   3993000   4551.2303      900696.9       7695.0845      940637.95      946014.83      815437.92      74804.204      49738.069     -17.170245      9435.6265      20278.557      29714.184      117103.01      39.039313      39.039313      76.835819          16040 
   3994000   4470.0015      904282.43      7702.7898      939789.04      950767.39      822290.85      76003.482      44719.525      3028.6539      9267.2226      20421.119      29688.342      117147.59      39.044266      39.044266      76.845568          16040 
   3995000   4488.5177      901839.72      7710.4919      941638.89      945287.93      818592.35      71859.725      50519.285      674.6783       9305.6105      20406.731      29712.342      117102.07      39.039209      39.039209      76.835614          16040 
   3996000   4516.9679      896104.54      7718.198       934383.02      938799.74      815130.87      75356.806      46089.013      965.11753      9364.5935      20287.605      29652.198      117208.09      39.050986      39.050986      76.858794          16040 
   3997000   4495.4818      902534.86      7725.9012      939383.35      948301.85      819919.39      71084.914      45964.927      4655.3557      9320.0485      20381.952      29702.001      117119.62      39.041159      39.041159      76.839453          16040 
   3998000   4468.4853      902802.08      7733.6043      938727.33      948377.8       821301.1       72337.478      49749.034     -2740.3842      9264.0792      20435.497      29699.577      117123.16      39.041552      39.041552      76.840226          16040 
   3999000   4509.7202      907176.07      7741.3071      945337.98      950287.42      825902.81      72950.61       47013.632      133.4366       9349.5675      20411.568      29761.135      117013.17      39.029327      39.029327      76.816166          16040 
   4000000   4478.1445      900242.21      7749.0152      938105.02      944354.93      818266.68      73145.155      50574.468     -1368.2744      9284.1046      20354.918      29639.023      117230.37      39.053461      39.053461      76.863665          16040 
Loop time of 7749.02 on 8 procs for 1000000 steps with 16040 atoms

Performance: 5.575 ns/day, 4.305 hours/ns, 129.049 timesteps/s
61.4% CPU use with 1 MPI tasks x 8 OpenMP threads

MPI task timing breakdown:
Section |  min time  |  avg time  |  max time  |%varavg| %total
---------------------------------------------------------------
Pair    | 7461.2     | 7461.2     | 7461.2     |   0.0 | 96.29
Neigh   | 13.846     | 13.846     | 13.846     |   0.0 |  0.18
Comm    | 42.401     | 42.401     | 42.401     |   0.0 |  0.55
Output  | 1.3027     | 1.3027     | 1.3027     |   0.0 |  0.02
Modify  | 205.37     | 205.37     | 205.37     |   0.0 |  2.65
Other   |            | 24.9       |            |       |  0.32

Nlocal:          16040 ave       16040 max       16040 min
Histogram: 1 0 0 0 0 0 0 0 0 0
Nghost:          15682 ave       15682 max       15682 min
Histogram: 1 0 0 0 0 0 0 0 0 0
Neighs:              0 ave           0 max           0 min
Histogram: 1 0 0 0 0 0 0 0 0 0
FullNghs:  1.95967e+06 ave 1.95967e+06 max 1.95967e+06 min
Histogram: 1 0 0 0 0 0 0 0 0 0

Total # of neighbors = 1959674
Ave neighs/atom = 122.17419
Neighbor list builds = 34228
Dangerous builds = 0
Total wall time: 8:32:32
