
atom_style atomic
units metal
boundary p p p
#atom_modify sort 0 0.0
newton on

read_data data.lammps
Reading data file ...
  orthogonal box = (0 0 0) to (43.790145 43.790145 87.58029)
  1 by 1 by 1 MPI processor grid
  reading atoms ...
  16040 atoms
  read_data CPU = 0.041 seconds
# replicate 10 10 20

### interactions

pair_style flare
pair_coeff * * lmp.flare
Reading potential file lmp.flare with DATE: Thu

# compute unc all flare/std/atom L_inv_lmp.flare sparse_desc_lmp.flare
# compute MaxUnc all reduce max c_unc

mass 1 12.011000
mass 2 28.085000

thermo_style custom step temp press cpu pxx pyy pzz pxy pxz pyz ke pe etotal vol lx ly lz atoms    #c_MaxUnc
thermo 1000
timestep 0.0005
restart 100000 restart_*.dat

#################### Equilibrate at P and T_es ##############################
velocity all create $T 41928459 rot yes dist gaussian
velocity all create 3200 41928459 rot yes dist gaussian
fix mom all momentum 1000 linear 1 1 1 angular

fix 1 all npt temp $T $T $(100.0*dt) iso $P $P $(1000.0*dt)
fix 1 all npt temp 3200 $T $(100.0*dt) iso $P $P $(1000.0*dt)
fix 1 all npt temp 3200 3200 $(100.0*dt) iso $P $P $(1000.0*dt)
fix 1 all npt temp 3200 3200 0.050000000000000002776 iso $P $P $(1000.0*dt)
fix 1 all npt temp 3200 3200 0.050000000000000002776 iso 600000 $P $(1000.0*dt)
fix 1 all npt temp 3200 3200 0.050000000000000002776 iso 600000 600000 $(1000.0*dt)
fix 1 all npt temp 3200 3200 0.050000000000000002776 iso 600000 600000 0.5
dump 1 all custom 1000 1equil.bin id type x y z vx vy vz
run   10000 # report performance
Neighbor list info ...
  update every 1 steps, delay 10 steps, check yes
  max neighbors/atom: 2000, page size: 100000
  master list distance cutoff = 6
  ghost atom cutoff = 6
  binsize = 6, bins = 8 8 15
  1 neighbor lists, perpetual/occasional/extra = 1 0 0
  (1) pair flare/kk, perpetual
      attributes: full, newton on, kokkos_device
      pair build: full/bin/kk/device
      stencil: full/bin/3d
      bin: kk/device
Per MPI rank memory allocation (min/avg/max) = 16.04 | 16.04 | 16.04 Mbytes
   Step          Temp          Press           CPU            Pxx            Pyy            Pzz            Pxy            Pxz            Pyz           KinEng         PotEng         TotEng         Volume           Lx             Ly             Lz          Atoms   
         0   3200           76627.815      0              77285.378      76158.543      76439.524      1157.9361     -232.12173     -781.28355      6634.2511     -2985.8921      3648.359       167941.93      43.790145      43.790145      87.58029           16040 
      1000   3263.4967      598593.25      7.1161961      598454         601782.6       595543.15      1892.4217      443.33321      1944.7309      6765.8926      7624.3315      14390.224      142411.82      41.448169      41.448169      82.896338          16040 
      2000   3130.7743      601037.55      14.547035      600239.03      601683.28      601190.35      546.39374      2018.6615      678.11287      6490.7322      7411.9061      13902.638      142054.9       41.413513      41.413513      82.827026          16040 
      3000   3225.2735      599101.49      21.972408      601199.96      598687.54      597416.97     -1306.8435     -280.95892     -2830.3176      6686.6482      7483.8897      14170.538      142111.05      41.418969      41.418969      82.837938          16040 
      4000   3175.2341      601846.39      29.396607      601068.08      603034.81      601436.27     -1378.9711      448.39774      3269.9558      6582.9063      7423.2569      14006.163      141977.06      41.405948      41.405948      82.811895          16040 
      5000   3189.8918      599697.48      36.804169      599382.7       600642.32      599067.43     -940.99587      1653.1794      1652.4228      6613.2947      7491.6216      14104.916      142058         41.413815      41.413815      82.82763           16040 
      6000   3187.4732      600422.65      44.208511      599425.55      600898.64      600943.76     -442.37518      1022.6861      2062.408       6608.2805      7395.4074      14003.688      141992.56      41.407454      41.407454      82.814908          16040 
      7000   3210.5317      600059.44      51.609042      599406.58      599921.91      600849.84     -204.35428     -426.79901     -1641.6627      6656.0855      7417.6337      14073.719      142037.04      41.411777      41.411777      82.823555          16040 
      8000   3183.3597      600589.94      59.011518      600818.41      600099.49      600851.92     -3125.3933      2140.6244      2980.8787      6599.7523      7383.2258      13982.978      141973.64      41.405615      41.405615      82.81123           16040 
      9000   3191.0448      600120.23      66.413877      600018.4       598953.75      601388.54      1901.2427     -2455.4725      2839.567       6615.6851      7436.4964      14052.181      142001.97      41.408369      41.408369      82.816737          16040 
     10000   3211.5414      599287.52      73.821243      598095.25      600860.58      598906.72     -3047.4413     -945.10016     -40.007491      6658.1788      7394.0271      14052.206      141944.85      41.402816      41.402816      82.805632          16040 
Loop time of 73.8213 on 8 procs for 10000 steps with 16040 atoms

Performance: 5.852 ns/day, 4.101 hours/ns, 135.462 timesteps/s
60.6% CPU use with 1 MPI tasks x 8 OpenMP threads

MPI task timing breakdown:
Section |  min time  |  avg time  |  max time  |%varavg| %total
---------------------------------------------------------------
Pair    | 70.816     | 70.816     | 70.816     |   0.0 | 95.93
Neigh   | 0.097419   | 0.097419   | 0.097419   |   0.0 |  0.13
Comm    | 0.34318    | 0.34318    | 0.34318    |   0.0 |  0.46
Output  | 0.012284   | 0.012284   | 0.012284   |   0.0 |  0.02
Modify  | 2.2861     | 2.2861     | 2.2861     |   0.0 |  3.10
Other   |            | 0.2663     |            |       |  0.36

Nlocal:          16040 ave       16040 max       16040 min
Histogram: 1 0 0 0 0 0 0 0 0 0
Nghost:          13947 ave       13947 max       13947 min
Histogram: 1 0 0 0 0 0 0 0 0 0
Neighs:              0 ave           0 max           0 min
Histogram: 1 0 0 0 0 0 0 0 0 0
FullNghs:  1.63134e+06 ave 1.63134e+06 max 1.63134e+06 min
Histogram: 1 0 0 0 0 0 0 0 0 0

Total # of neighbors = 1631340
Ave neighs/atom = 101.70449
Neighbor list builds = 254
Dangerous builds = 0
run  990000
Per MPI rank memory allocation (min/avg/max) = 16.23 | 16.23 | 16.23 Mbytes
   Step          Temp          Press           CPU            Pxx            Pyy            Pzz            Pxy            Pxz            Pyz           KinEng         PotEng         TotEng         Volume           Lx             Ly             Lz          Atoms   
     10000   3211.5414      599287.52      0              598095.25      600860.58      598906.72     -3047.4413     -945.10016     -40.007491      6658.1788      7394.0271      14052.206      141944.85      41.402816      41.402816      82.805632          16040 
     11000   3183.8846      594815.81      7.3985068      596543.93      592634.07      595269.42      3096.1997      1041.4038     -1180.2564      6600.8405      7372.9065      13973.747      142101.94      41.418083      41.418083      82.836167          16040 
     12000   3190.3762      602436.02      14.802003      601078.99      603017.68      603211.39     -1509.7811     -648.38295     -3428.3512      6614.299       7436.9443      14051.243      141900.52      41.398505      41.398505      82.797011          16040 
     13000   3194.4982      600959.18      22.203637      601552.38      601298.86      600026.29      970.01859      1316.4826     -984.45824      6622.8448      7400.0456      14022.89       141894.43      41.397913      41.397913      82.795827          16040 
     14000   3201.4689      599482.72      29.602383      597740.11      601907.35      598800.71     -283.60245     -2751.2544      1288.4222      6637.2964      7301.4028      13938.699      142000.04      41.408181      41.408181      82.816363          16040 
     15000   3202.0972      601430.73      37.00357       603634.56      598031.36      602626.26      836.51675     -1954.1837     -1465.7926      6638.599       7428.6057      14067.205      141958.52      41.404145      41.404145      82.80829           16040 
     16000   3170.3722      596231.24      44.41864       597621.47      597882.37      593189.87      1842.6621     -343.88844     -1219.5927      6572.8266      7358.7759      13931.602      142102.9       41.418177      41.418177      82.836354          16040 
     17000   3178.0115      603025.81      51.823021      602429.49      602188.44      604459.51     -1558.4241      1999.4583      787.42356      6588.6644      7342.6108      13931.275      141805.87      41.389299      41.389299      82.778598          16040 
     18000   3204.9167      595368.11      59.223773      597600.16      593694.03      594810.12     -1790.5561     -509.74507      898.45908      6644.4445      7318.9088      13963.353      142144.16      41.422186      41.422186      82.844372          16040 
     19000   3235.6899      603440.43      66.622399      602202.52      604798.24      603320.53      1394.4123      3124.5334     -3367.7338      6708.2435      7383.4135      14091.657      141846.53      41.393255      41.393255      82.786509          16040 
     20000   3188.9514      594084.89      74.023691      593253.5       595562.85      593438.32      120.34164     -1751.2066     -585.33849      6611.3451      7296.5839      13907.929      142134.85      41.421281      41.421281      82.842562          16040 
     21000   3169.1254      603638.49      81.422312      603571.91      605043.33      602300.24      716.20996     -698.4492       3693.3346      6570.2419      7449.5222      14019.764      141864.94      41.395045      41.395045      82.790091          16040 
     22000   3204.984       597933.96      88.823883      597968.24      596950.2       598883.42      1022.8929      1435.6232     -560.44326      6644.5839      7350.4065      13994.99       142060.24      41.414032      41.414032      82.828065          16040 
     23000   3185.6516      600323.45      96.223581      599256.25      599926.11      601787.98     -1865.8261      1863.0343      2694.7331      6604.5039      7350.5112      13955.015      141980.13      41.406246      41.406246      82.812491          16040 
     24000   3248.0581      600927.05      103.62415      599616.86      600938.16      602226.14      876.30544     -2507.1812      2310.9465      6733.8854      7341.1175      14075.003      142034.72      41.411552      41.411552      82.823105          16040 
     25000   3181.6958      599392.56      111.02232      600566.77      599658.28      597952.63      3717.3217      1989.3762      5433.2196      6596.3028      7301.2745      13897.577      142036.82      41.411756      41.411756      82.823512          16040 
     26000   3192.0512      605218.24      118.42065      603568.4       607571.63      604514.69     -409.23438      1068.9363     -3627.3729      6617.7716      7436.4786      14054.25       141822.69      41.390935      41.390935      82.78187           16040 
     27000   3173.5904      592392.66      125.82058      591385.09      592236.2       593556.68      2057.2637      261.67414      2151.7851      6579.4986      7228.441       13807.94       142222.81      41.429824      41.429824      82.859648          16040 
     28000   3224.0816      606748.23      133.21972      606766.89      605101.66      608376.13      2051.756      -66.280793      298.52466      6684.1771      7407.5111      14091.688      141764.15      41.385239      41.385239      82.770478          16040 
     29000   3163.4556      597597.21      140.61928      598104.24      595288         599399.4      -668.76088     -1170.1633     -1330.1047      6558.4871      7268.8116      13827.299      142087.84      41.416714      41.416714      82.833428          16040 
     30000   3219.1343      600859.26      148.01608      599775.73      600756.56      602045.49     -658.007       -2395.7877     -200.91433      6673.9205      7350.0183      14023.939      141982.73      41.406499      41.406499      82.812998          16040 
     31000   3225.8654      599612.65      155.41564      598727.68      599704.98      600405.29     -439.40207     -1437.6709      2146.112       6687.8754      7287.8329      13975.708      142016.52      41.409784      41.409784      82.819567          16040 
     32000   3203.4851      596127.47      162.81206      598015.47      597228.07      593138.85     -3516.6644      4143.5508      1453.4337      6641.4764      7261.683       13903.159      142161.45      41.423865      41.423865      82.847729          16040 
     33000   3212.8994      604728.83      170.20882      604856.63      604968.43      604361.42     -2247.7494      2478.4361     -896.80504      6660.9941      7435.9072      14096.901      141823.87      41.39105       41.39105       82.782099          16040 
     34000   3181.1288      593771.05      177.60734      593907.3       594831.46      592574.39     -1112.5582      631.3834       1195.8634      6595.1272      7260.37        13855.497      142205.44      41.428137      41.428137      82.856274          16040 
     35000   3194.4409      603494.4       185.00303      604715.79      601666.4       604101.03      790.97236      2304.4129      70.789256      6622.726       7391.5125      14014.238      141892.19      41.397696      41.397696      82.795391          16040 
     36000   3205.4298      600080.42      192.40023      599310.95      601483.25      599447.06     -944.07214      1180.1917     -1783.9515      6645.5082      7244.406       13889.914      141975.34      41.405781      41.405781      82.811561          16040 
     37000   3192.4345      600030.67      199.7961       601125.91      598345.11      600620.98     -1747.6412      2048.4884     -7022.1145      6618.5663      7217.1225      13835.689      141976.03      41.405847      41.405847      82.811694          16040 
     38000   3198.8124      600464.71      207.19288      602100.12      600688.01      598606.01     -426.56395      2560.7854     -1468.8028      6631.7889      7332.2664      13964.055      141940.95      41.402437      41.402437      82.804874          16040 
     39000   3155.9457      596380.14      214.59204      595858.8       596728.29      596553.34      1057.0932     -1065.7464      5534.614       6542.9176      7233.7364      13776.654      142068.85      41.414868      41.414868      82.829737          16040 
     40000   3202.7307      604348.63      221.9898       603255.63      604869.63      604920.63     -45.56434       356.76291     -1644.4073      6639.9124      7373.311       14013.223      141828.09      41.391461      41.391461      82.782921          16040 
     41000   3191.0882      596091.74      229.38791      595374.99      596373.86      596526.37     -2625.323       4426.0416      261.03999      6615.775       7164.6541      13780.429      142149.81      41.422734      41.422734      82.845469          16040 
     42000   3227.9067      602871.66      236.7833       603367.56      602986.22      602261.2       3231.16       -2815.763       608.40166      6692.1074      7271.4881      13963.595      141886.33      41.397126      41.397126      82.794252          16040 
     43000   3178.457       595977.08      244.18332      596916.47      595691.27      595323.49      207.92081     -2268.8941     -6294.0221      6589.5881      7204.7011      13794.289      142089.03      41.41683       41.41683       82.83366           16040 
     44000   3206.8744      602786.58      251.58177      602636.8       603102         602620.94      1723.3767     -817.77803      1770.5865      6648.5032      7302.8901      13951.393      141871.81      41.395714      41.395714      82.791427          16040 
     45000   3195.9775      600302.14      258.97882      601053.24      598674.99      601178.2       812.78582     -2975.7636      233.40791      6625.9117      7242.9667      13868.878      141941.21      41.402462      41.402462      82.804924          16040 
     46000   3249.4638      600454.64      266.37841      598553.24      601518.22      601292.45     -2000.5612     -1115.3883     -1340.1436      6736.7997      7238.0462      13974.846      141922.16      41.40061       41.40061       82.80122           16040 
     47000   3178.6526      600689.75      273.7779       600312.79      601019.35      600737.11      1873.8361     -1715.3098      1600.4087      6589.9937      7239.1449      13829.139      141898.04      41.398264      41.398264      82.796528          16040 
     48000   3202.054       600573.72      281.17268      600384.96      600277.71      601058.5      -2680.0937      118.3995       80.870563      6638.5094      7254.5532      13893.063      142009.12      41.409064      41.409064      82.818128          16040 
     49000   3184.1613      604269.11      288.57038      605411.37      604573.24      602822.73     -2824.6968     -2359.8957     -962.67291      6601.4142      7300.853       13902.267      141895.37      41.398005      41.398005      82.79601           16040 
     50000   3210.0952      596938.16      295.9695       596831.11      596927.93      597055.45     -1568.5146     -386.36607      4217.6616      6655.1805      7169.723       13824.903      142066.66      41.414656      41.414656      82.829313          16040 
     51000   3212.6304      602605.51      303.36762      603232.27      602949.01      601635.26     -696.07533     -1622.1539     -4007.2942      6660.4366      7317.1147      13977.551      141906.06      41.399045      41.399045      82.798089          16040 
     52000   3226.1861      597439.54      310.76996      596179.77      599901.14      596237.7      -3.8723439      3431.4746     -4682.5915      6688.5402      7180.0424      13868.583      142121.57      41.419991      41.419991      82.839982          16040 
     53000   3180.6098      600899.51      318.17108      601106.46      600200.22      601391.85      1531.8311     -2699.9974      1673.0859      6594.0513      7290.4884      13884.54       141918.58      41.400262      41.400262      82.800524          16040 
     54000   3186.71        597530.59      325.57056      597129.08      598799         596663.68     -2352.1754     -865.45114      3700.2641      6606.6981      7277.687       13884.385      142014.65      41.409602      41.409602      82.819203          16040 
     55000   3216.8943      601203.35      332.97007      601408.81      599843.58      602357.67     -4737.3541     -1794.979       462.68179      6669.2764      7236.7909      13906.067      141911.33      41.399557      41.399557      82.799113          16040 
     56000   3244.7757      599582.18      340.3682       597386.91      600860.1       600499.52      1354.5496      2466.5088      1603.1758      6727.0802      7211.0572      13938.137      142015.58      41.409692      41.409692      82.819384          16040 
     57000   3205.2386      596283.54      347.76603      597116.57      595653.39      596080.65     -285.83651     -3476.2202     -240.25019      6645.1118      7215.8075      13860.919      142117.29      41.419575      41.419575      82.83915           16040 
     58000   3206.6269      611118.22      355.16637      611534.8       610460.13      611359.73      3804.7803      3028.272      -2267.9355      6647.9901      7377.4747      14025.465      141610.48      41.370281      41.370281      82.740561          16040 
     59000   3218.285       592021.19      362.56138      591283.55      591641.25      593138.77     -2866.3377     -3744.0069      695.81955      6672.1597      7174.2335      13846.393      142304.05      41.437711      41.437711      82.875422          16040 
     60000   3172.7758      601009.79      369.95967      598200.07      602304.72      602524.59     -1558.7447     -1924.8486      1203.4327      6577.8097      7272.5828      13850.393      141934.25      41.401785      41.401785      82.803571          16040 
     61000   3178.244       600453.33      377.35734      599029.03      600061.72      602269.22     -3867.2303      1451.0133     -3465.545       6589.1465      7204.3911      13793.538      141997.81      41.407965      41.407965      82.81593           16040 
     62000   3191.8074      600561.42      384.75342      601007.94      599426.11      601250.2      -1472.329      -497.18241     -4301.5939      6617.2662      7239.9665      13857.233      141949.27      41.403246      41.403246      82.806492          16040 
     63000   3171.6946      599368.68      392.15019      600839.48      600050.01      597216.53     -2344.1556      110.92104      1097.8936      6575.5683      7185.1498      13760.718      141968.3       41.405096      41.405096      82.810192          16040 
     64000   3191.1189      600363.22      399.54896      601189.04      599340.27      600560.36      170.75307      2743.3306     -2992.5904      6615.8388      7291.6942      13907.533      141933.56      41.401718      41.401718      82.803436          16040 
     65000   3192.4231      596587.77      406.94633      597803.35      595712.04      596247.92      2937.8494     -1169.6584     -4534.4735      6618.5426      7151.7951      13770.338      142070.82      41.41506       41.41506       82.83012           16040 
     66000   3176.2977      606136.58      414.34772      606995.05      604353.97      607060.74      807.69167      208.46472     -1992.0105      6585.1115      7385.9692      13971.081      141733.31      41.382239      41.382239      82.764477          16040 
     67000   3181.8253      594196.07      421.74685      592892.34      594617.39      595078.48     -207.03419      2613.9708      1022.6265      6596.5712      7081.7959      13678.367      142145.47      41.422312      41.422312      82.844625          16040 
     68000   3204.57        603036.12      429.14433      601178.29      604017.78      603912.3       629.09821      3523.9291      556.05078      6643.7257      7230.5561      13874.282      141894.68      41.397937      41.397937      82.795875          16040 
     69000   3232.2875      598383.66      436.54403      599827.74      599860.17      595463.08      3105.692       1633.8381     -200.03136      6701.1897      7230.1184      13931.308      142052.28      41.413259      41.413259      82.826518          16040 
     70000   3174.5255      600467.94      443.94321      598769.91      601039.81      601594.09     -853.70256      1633.572       2642.5417      6581.4374      7262.3778      13843.815      141980.72      41.406303      41.406303      82.812607          16040 
     71000   3217.0982      599310.61      451.34467      599407.66      600071.39      598452.78      2778.216      -2048.2878      3143.6477      6669.6991      7298.002       13967.701      142006.86      41.408844      41.408844      82.817689          16040 
     72000   3185.5991      597177.37      458.74046      595462.56      598087.71      597981.84      1455.011       1246.8921      2124.6052      6604.395       7225.4299      13829.825      142033.85      41.411467      41.411467      82.822934          16040 
     73000   3215.8166      604561.28      466.13972      603472.76      605495.15      604715.93     -1887.5665      838.52141     -1817.3029      6667.0421      7275.0621      13942.104      141840.04      41.392623      41.392623      82.785247          16040 
     74000   3180.0725      591052.3       473.53588      590281.14      591571.89      591303.87     -194.53714      2747.3937     -1364.1244      6592.9374      7132.433       13725.37       142280.64      41.435438      41.435438      82.870876          16040 
     75000   3193.1298      606029.44      480.93632      607607.69      605250.69      605229.93     -4728.674      -2583.8089      3662.7611      6620.0077      7270.4577      13890.465      141776.07      41.3864        41.3864        82.7728            16040 
     76000   3199.4292      599428.94      488.33327      598579.88      600116.51      599590.44     -2120.1557      1638.2237      82.59501       6633.0677      7197.2826      13830.35       142021.97      41.410313      41.410313      82.820626          16040 
     77000   3209.1715      601144.03      495.73466      602409.25      600520.21      600502.63      808.98948      609.57857      2325.1897      6653.2654      7226.7063      13879.972      141937.12      41.402065      41.402065      82.804129          16040 
     78000   3200.1172      601229.12      503.13443      600126.23      602311.25      601249.89     -1258.4137      1233.4536     -837.48194      6634.4941      7183.3512      13817.845      141956.61      41.403959      41.403959      82.807918          16040 
     79000   3234.6731      599652.86      510.52903      599103.47      599156.85      600698.27     -1178.9799      2289.549      -111.73079      6706.1354      7242.2343      13948.37       142011.02      41.409249      41.409249      82.818497          16040 
     80000   3194.1078      601705.59      517.92766      602368.95      601874.39      600873.44     -2218.6283      2005.4711      4562.1485      6622.0353      7178.7891      13800.824      141945.88      41.402916      41.402916      82.805832          16040 
     81000   3215.0202      599117.55      525.3274       597312.13      600543.45      599497.07     -1825.9123      1288.1921      753.12926      6665.391       7203.1473      13868.538      142073.55      41.415325      41.415325      82.83065           16040 
     82000   3205.0451      603309.65      532.7236       602407.24      602541.13      604980.57      3181.7999      488.68125     -442.25868      6644.7106      7222.5349      13867.245      141861.91      41.394751      41.394751      82.789502          16040 
     83000   3194.8558      595626.59      540.1233       596130.17      595266.93      595482.66     -990.92374     -906.95057      1204.908       6623.5861      7127.4352      13751.021      142081.48      41.416096      41.416096      82.832192          16040 
     84000   3199.1222      604133.11      547.52117      602741.17      605988.99      603669.16     -311.37783      979.94739     -1030.8323      6632.4313      7311.9921      13944.423      141798.1       41.388543      41.388543      82.777087          16040 
     85000   3168.6117      595985.81      554.91995      597808.29      595831.55      594317.61      1843.4168      5640.1759      1959.9073      6569.1768      7234.6408      13803.818      142105.07      41.418388      41.418388      82.836776          16040 
     86000   3243.6005      602269.97      562.31763      601568.32      603290.79      601950.8      -1493.4385      792.88528     -1399.0267      6724.6439      7343.902       14068.546      141895.61      41.398028      41.398028      82.796057          16040 
     87000   3211.7077      596180.42      569.71742      594669.1       596749.99      597122.16      548.302       -3286.66       -3337.1567      6658.5235      7119.2034      13777.727      142032.52      41.411338      41.411338      82.822676          16040 
     88000   3220.6546      602921.72      577.11756      601952.62      602868.79      603943.74      1231.5404     -3479.6821     -2009.8505      6677.0723      7294.6505      13971.723      141855.81      41.394157      41.394157      82.788314          16040 
     89000   3179.8238      596262.89      584.51742      595230.28      595815.04      597743.37      470.82945      1142.1345      2126.3627      6592.4217      7180.7534      13773.175      142130.18      41.420828      41.420828      82.841655          16040 
     90000   3237.3932      602480.06      591.9176       601344.03      603471.42      602624.72     -1108.2033     -500.55479      90.885562      6711.7747      7218.9067      13930.681      141906.41      41.399078      41.399078      82.798156          16040 
     91000   3194.9762      597552.76      599.32166      598988.94      596024.27      597645.09      2643.352      -1323.917       6984.8861      6623.8358      7188.2808      13812.117      142085.78      41.416514      41.416514      82.833027          16040 
     92000   3221.4252      603919.64      606.72329      604150.29      603144.2       604464.44     -1618.3001     -433.15168      1394.256       6678.67        7298.6972      13977.367      141800.15      41.388743      41.388743      82.777486          16040 
     93000   3197.2995      598443.4       614.12047      598657.49      598497.56      598175.16     -508.30978      3399.9382      3111.3007      6628.6525      7172.6376      13801.29       142045.57      41.412606      41.412606      82.825212          16040 
     94000   3211.5454      601906.9       621.52214      601814.06      602357.7       601548.95      1687.307      -1062.7325      1603.6527      6658.187       7292.3538      13950.541      141901.54      41.398605      41.398605      82.79721           16040 
     95000   3210.0697      600343.43      628.92363      600830.73      602036.37      598163.2      -2179.3092      1429.6673     -2183.8909      6655.1277      7170.4119      13825.54       141985.13      41.406732      41.406732      82.813464          16040 
     96000   3197.7453      599639.41      636.31992      601653.48      599040.79      598223.97      428.94285      2563.1472     -2984.1954      6629.5765      7269.3495      13898.926      142047.69      41.412812      41.412812      82.825625          16040 
     97000   3178.9939      600022.32      643.72292      600732.12      599701.6       599633.24     -1802.0746     -2450.3058     -1660.7744      6590.7012      7193.1084      13783.81       141926.2       41.401002      41.401002      82.802005          16040 
     98000   3195.8272      596456.38      651.12212      595265.74      596538.8       597564.6      -5450.595      -71.965307     -3402.2997      6625.6         7199.2572      13824.857      142140.23      41.421804      41.421804      82.843607          16040 
     99000   3188.3754      609905.08      658.52146      608810.36      611760.16      609144.73      3481.8064     -275.47913     -2111.6855      6610.151       7259.2127      13869.364      141621.07      41.371312      41.371312      82.742624          16040 
    100000   3176.2741      592150.31      665.92374      591500.15      592772.32      592178.46      2130.8324      501.85842      2488.8372      6585.0625      7136.7309      13721.793      142276.63      41.43505       41.43505       82.870099          16040 
    101000   3205.6502      601503.98      673.32032      601295.15      601408.46      601808.34      573.45406     -2512.0753      246.72068      6645.9652      7216.3994      13862.365      141934.39      41.401799      41.401799      82.803598          16040 
    102000   3206.3427      599210.75      680.72352      597808.93      601480.88      598342.45     -350.80496      159.99707      155.40015      6647.4008      7131.3088      13778.71       141943.68      41.402702      41.402702      82.805404          16040 
    103000   3152.6584      602315.29      688.11999      602898.47      602121.63      601925.77     -5568.3707      192.83835      1084.7289      6536.1022      7218.1815      13754.284      141890.14      41.397496      41.397496      82.794992          16040 
    104000   3206.1301      597101.27      695.51812      599292.73      595516.77      596494.31     -321.19816      1037.4361      456.90321      6646.9601      7136.2588      13783.219      142053.17      41.413345      41.413345      82.826689          16040 
    105000   3216.6109      604891.49      702.91523      604395.6       605943.79      604335.09      4381.0641     -863.79617      580.66378      6668.6889      7289.2634      13957.952      141889.81      41.397464      41.397464      82.794928          16040 
    106000   3197.1274      596337.37      710.314        595523.35      596935.67      596553.09      726.8148       2808.7509     -2422.5373      6628.2957      7127.6395      13755.935      142133.4       41.42114       41.42114       82.84228           16040 
    107000   3189.1755      601883.45      717.71063      601190.45      602324.62      602135.28      2284.1655      1152.8348      932.87524      6611.8096      7303.4692      13915.279      141944.56      41.402788      41.402788      82.805576          16040 
    108000   3188.1708      599672.69      725.10769      599966.78      598692.02      600359.27      7476.3599     -213.94354     -3979.1922      6609.7268      7175.0259      13784.753      141996.63      41.40785       41.40785       82.8157            16040 
    109000   3228.8966      600846.47      732.50341      601645.64      600258.28      600635.48     -1626.9573     -3105.219      -5026.8768      6694.1597      7227.6477      13921.807      141960.12      41.404301      41.404301      82.808602          16040 
    110000   3205.8089      599747.62      739.90106      600361.99      599755.19      599125.69      1356.2804     -2733.7025      4240.043       6646.2941      7147.8774      13794.172      142013.25      41.409465      41.409465      82.81893           16040 
    111000   3190.0153      599453.33      747.29478      600736.01      599835.52      597788.45     -1108.6505     -1086.2453     -2410.9915      6613.5508      7168.0743      13781.625      141970.51      41.405311      41.405311      82.810621          16040 
    112000   3215.9318      603264.62      754.68997      602894.01      605068.34      601831.51     -1131.1271      3357.4198      295.0599       6667.281       7230.3232      13897.604      141893.02      41.397777      41.397777      82.795553          16040 
    113000   3189.3862      597792.63      762.08741      596096.62      600226.19      597055.07      914.44765      59.134012      1407.023       6612.2466      7148.133       13760.38       142053.35      41.413363      41.413363      82.826725          16040 
    114000   3240.3302      602178.03      769.48083      601535.54      604993.17      600005.38     -1476.8023     -1674.3777      2645.0288      6717.8637      7224.8642      13942.728      141929.75      41.401348      41.401348      82.802696          16040 
    115000   3204.6136      599471.42      776.87466      600038.29      599446.7       598929.27      488.36261     -86.009697      1669.1732      6643.8159      7151.4626      13795.279      141991.39      41.40734       41.40734       82.814681          16040 
    116000   3231.9495      600410.94      784.26851      599278.39      601052.27      600902.16     -281.07273      1645.5828      3361.3227      6700.4889      7162.0397      13862.529      141985.91      41.406808      41.406808      82.813616          16040 
    117000   3164.1372      597822.96      791.6612       597848.57      598622.5       596997.82     -3189.5702      624.22722     -1209.9782      6559.9002      7138.7283      13698.628      142074.05      41.415374      41.415374      82.830748          16040 
    118000   3234.9799      610388.32      799.05625      611857.88      609033.28      610273.79     -87.786746      998.81707      2268.6211      6706.7716      7279.8738      13986.645      141623.15      41.371514      41.371514      82.743028          16040 
    119000   3207.9857      592289.6       806.45266      591867.35      592775.99      592225.45     -3147.3084      1530.68       -1372.123       6650.8071      7169.9006      13820.708      142247.39      41.432211      41.432211      82.864421          16040 
    120000   3194.2919      602399.77      813.84805      601173.32      604096.93      601929.05      963.9384       1529.7866     -3144.8733      6622.417       7213.7249      13836.142      141841.56      41.392771      41.392771      82.785541          16040 
    121000   3194.5916      598749.78      821.2486       599003.29      599964.56      597281.48     -1950.1356      2428.0234      3377.3097      6623.0384      7192.5795      13815.618      141991.22      41.407324      41.407324      82.814648          16040 
    122000   3204.9115      599345.32      828.65053      600888.37      597956.11      599191.46      115.74296     -1562.4927     -2571.2665      6644.4337      7138.203       13782.637      141929.69      41.401342      41.401342      82.802684          16040 
    123000   3196.6063      599811.92      836.05043      599463.48      599257.39      600714.89     -2625.1654      4157.3087     -2258.1563      6627.2153      7171.7323      13798.948      141926.4       41.401023      41.401023      82.802045          16040 
    124000   3215.2968      597608.53      843.45242      596411.14      597543.16      598871.3      -2634.9697      97.703117     -1953.7228      6665.9644      7100.7547      13766.719      142009.87      41.409136      41.409136      82.818273          16040 
    125000   3202.5343      604164.91      850.856        604101.47      601821.68      606571.58      1176.5444      3114.5896     -764.4647       6639.5052      7277.0645      13916.57       141803.54      41.389072      41.389072      82.778144          16040 
    126000   3224.7406      592749.59      858.25718      591761.68      593232.27      593254.84     -1291.1558     -1357.4521     -96.390538      6685.5434      7027.8353      13713.379      142240.6       41.431552      41.431552      82.863103          16040 
    127000   3174.8337      604494.37      865.65808      605051.45      605648.5       602783.16      1166.5078     -448.43647      78.178671      6582.0761      7276.7285      13858.805      141821.77      41.390845      41.390845      82.781691          16040 
    128000   3168.4738      600306.7       873.058        601197.11      600707.27      599015.71     -3473.3965      2721.3967     -3283.9052      6568.8908      7154.35        13723.241      141949.17      41.403236      41.403236      82.806471          16040 
    129000   3187.1736      599589.2       880.45387      600186.49      601062.55      597518.57     -975.24084     -1411.6738     -3813.3779      6607.6593      7162.2265      13769.886      141926.06      41.400989      41.400989      82.801979          16040 
    130000   3223.8874      598044.8       887.85107      597076.64      598255.76      598801.99      2236.4712      636.23657     -1493.5497      6683.7746      7210.474       13894.249      142061.46      41.414151      41.414151      82.828302          16040 
    131000   3192.6567      601295.65      895.24935      601605.02      601379.11      600902.83      1638.621      -885.04675     -1093.196       6619.0268      7201.5707      13820.598      141876.41      41.396161      41.396161      82.792322          16040 
    132000   3206.4132      595269.19      902.64381      595211.44      594118.55      596477.58      2889.0282     -3914.5477      1008.1985      6647.5469      7131.9181      13779.465      142184.89      41.426142      41.426142      82.852283          16040 
    133000   3201.1156      606683.79      910.04394      605418.01      608524.69      606108.68     -1483.1374     -1346.016      -451.07932      6636.564       7228.0533      13864.617      141742.27      41.383111      41.383111      82.766221          16040 
    134000   3192.4729      597291.24      917.44214      596796.17      597608.68      597468.87      298.1966       34.663029     -239.86302      6618.6458      7118.7072      13737.353      142071.84      41.415159      41.415159      82.830319          16040 
    135000   3190.8879      602098.06      924.8369       602241.84      601281.46      602770.87      2003.2059      799.16363      1624.4032      6615.3598      7125.3388      13740.699      141870.26      41.395563      41.395563      82.791126          16040 
    136000   3226.8468      596830.51      932.23401      596276.88      597763.69      596450.97     -969.43899     -982.39047      1957.0952      6689.9099      7098.2712      13788.181      142111.85      41.419046      41.419046      82.838093          16040 
    137000   3178.3936      603538.31      939.62823      602641.91      605928.44      602044.57      1250.0251      3525.775      -1649.75        6589.4567      7190.5747      13780.031      141823.12      41.390978      41.390978      82.781955          16040 
    138000   3214.9887      595952.33      947.0269       596312.61      597559.67      593984.69      1075.0158      3010.2705     -1829.3309      6665.3257      7058.3633      13723.689      142083.8       41.416322      41.416322      82.832643          16040 
    139000   3212.4935      603281.79      954.42126      602924.14      603110.18      603811.04     -257.46293      1044.6826      3575.2539      6660.1527      7231.9024      13892.055      141835.32      41.392164      41.392164      82.784328          16040 
    140000   3202.9838      594317.59      961.81962      593948.75      592304.02      596700         615.27534     -917.5993       2993.3858      6640.4371      7106.4334      13746.871      142230.14      41.430536      41.430536      82.861072          16040 
    141000   3180.5244      601808.27      969.21738      601544.15      601534.92      602345.74      726.27473      2632.4309     -361.27166      6593.8743      7193.3985      13787.273      141888.16      41.397304      41.397304      82.794608          16040 
    142000   3172.8128      599802.39      976.61218      599375.04      598276.31      601755.84     -113.94164     -48.727024     -3940.6552      6577.8865      7201.3014      13779.188      141989.65      41.407171      41.407171      82.814343          16040 
    143000   3186.0797      600331.08      984.00749      598843.35      600615.58      601534.3      -1742.9446      1664.1696      1127.4499      6605.3914      7224.0998      13829.491      141941.28      41.402469      41.402469      82.804939          16040 
    144000   3175.6042      600431.54      991.4039       600131.02      601379.77      599783.83      2798.7695     -2827.1597     -3016.8135      6583.6736      7148.8947      13732.568      141952.65      41.403575      41.403575      82.807149          16040 
    145000   3199.5035      600057.56      998.80089      601764.73      599149.2       599258.75      689.08966      2342.5739     -2171.6009      6633.2218      7178.0137      13811.236      141980.09      41.406242      41.406242      82.812484          16040 
    146000   3164.1842      598536.89      1006.2026      598752.7       599603.51      597254.47      2025.0077     -2193.6421     -828.40105      6559.9976      7124.8037      13684.801      142028.22      41.41092       41.41092       82.821841          16040 
    147000   3225.3999      604552.15      1013.6033      605887.37      602749.66      605019.43      4184.9         691.58563     -1568.6021      6686.9103      7209.5446      13896.455      141836.28      41.392257      41.392257      82.784514          16040 
    148000   3209.476       593726.82      1021.0031      592182.38      591971.28      597026.82      3032.3987     -1506.4233     -1177.7931      6653.8967      7110.6672      13764.564      142204.64      41.42806       41.42806       82.856119          16040 
    149000   3166.1334      602607.38      1028.4085      602213.14      603119.66      602489.33     -3074.4715      2354.5256      2543.9153      6564.0388      7160.9279      13724.967      141909.29      41.399358      41.399358      82.798716          16040 
    150000   3197.6623      599380.64      1035.8096      601280.91      599671.79      597189.22     -3095.8369     -4604.9765     -160.47274      6629.4046      7194.1665      13823.571      142028.56      41.410953      41.410953      82.821907          16040 
    151000   3148.2629      599776.68      1043.2097      601096.76      600456.61      597776.67     -2712.8713      708.23677      1720.2127      6526.9895      7171.5354      13698.525      141974.89      41.405737      41.405737      82.811474          16040 
    152000   3202.7558      602019.48      1050.6084      602565.9       602101.7       601390.85     -483.51926     -2071.0123     -1358.398       6639.9643      7151.6645      13791.629      141865.69      41.395118      41.395118      82.790237          16040 
    153000   3201.4037      596780.1       1058.0087      597150.1       597728.93      595461.28     -4283.6462      2473.4168      3894.5897      6637.1613      7227.4451      13864.606      142124.7       41.420295      41.420295      82.84059           16040 
    154000   3193.8186      605056.86      1065.4114      605168.61      605389.12      604612.86      248.8764       759.85396      1056.116       6621.4358      7227.9428      13849.379      141798.75      41.388606      41.388606      82.777212          16040 
    155000   3165.0538      591120.47      1072.8086      589789.57      591498.06      592073.78     -771.78092     -353.69156      2867.9671      6561.8005      7028.0566      13589.857      142252.23      41.432681      41.432681      82.865361          16040 
    156000   3195.2305      604528.51      1080.2096      603714.46      605221.36      604649.71      3716.9158      1865.3732     -3342.1505      6624.363       7197.7448      13822.108      141772.84      41.386085      41.386085      82.77217           16040 
    157000   3211.2128      597083.56      1087.6112      597172.94      597659.67      596418.07     -1175.0396      591.02011     -2284.4901      6657.4975      7103.7924      13761.29       142038.24      41.411894      41.411894      82.823788          16040 
    158000   3206.4535      600745.09      1095.0097      601557.08      600971.91      599706.27      2948.9804     -2751.4226     -1859.7637      6647.6306      7203.2587      13850.889      141959.39      41.40423       41.40423       82.808459          16040 
    159000   3220.5714      600360.17      1102.4088      599324.79      599143.82      602611.89      289.73552      3555.6363     -1698.7668      6676.8998      7102.1597      13779.06       141902.34      41.398683      41.398683      82.797366          16040 
    160000   3182.8805      599891.64      1109.8057      599864.23      601126.72      598683.97      4173.9864     -3209.8907     -2858.4906      6598.7588      7133.5444      13732.303      141988.69      41.407079      41.407079      82.814157          16040 
    161000   3174.8609      603951.45      1117.2022      602923.28      603263.76      605667.32     -935.20591     -891.11285     -1606.4975      6582.1326      7154.162       13736.295      141766.32      41.385451      41.385451      82.770902          16040 
    162000   3231.5898      592403.19      1124.6016      591174.79      593397.56      592637.23      261.076       -36.923119      1972.9233      6699.7432      6979.9768      13679.72       142254.59      41.432909      41.432909      82.865818          16040 
    163000   3230.8256      604549.86      1132.0017      602996.19      605794.6       604858.8      -2017.0194     -705.91054      2792.2103      6698.1589      7193.3712      13891.53       141817.23      41.390404      41.390404      82.780808          16040 
    164000   3210.6331      598146.15      1139.3991      596524.51      598468.18      599445.76     -518.16327      1074.9586      582.00659      6656.2957      7095.1469      13751.443      142037.22      41.411795      41.411795      82.823589          16040 
    165000   3227.593       601897.19      1146.7974      602977.07      601017.45      601697.06     -684.51674      1136.5266      468.98277      6691.4569      7219.9989      13911.456      141911.31      41.399555      41.399555      82.79911           16040 
    166000   3207.0955      598593.85      1154.1975      599045.32      598707.3       598028.92      991.83326     -1517.081       127.48022      6648.9615      7094.2574      13743.219      142018.97      41.410021      41.410021      82.820042          16040 
    167000   3212.969       602888.59      1161.5953      601816.65      603859.25      602989.87      2906.358       484.16942      2948.4984      6661.1385      7255.5756      13916.714      141900.22      41.398476      41.398476      82.796952          16040 
    168000   3183.4644      595114.76      1168.9921      592366.25      595502.06      597475.98      277.61077     -397.98329      764.2952       6599.9695      7075.9253      13675.895      142178.38      41.42551       41.42551       82.851019          16040 
    169000   3206.3654      599957.65      1176.3887      601138.19      599088.64      599646.1       2052.2823      46.227809      1504.8146      6647.4478      7201.5061      13848.954      141914.1       41.399826      41.399826      82.799651          16040 
    170000   3206.3465      599393.51      1183.7835      598766.58      598231.04      601182.9       1779.6521     -4239.2222     -1457.0137      6647.4088      7225.7432      13873.152      142007.56      41.408913      41.408913      82.817825          16040 
    171000   3221.2745      598579.81      1191.1813      599718.45      598379.42      597641.57     -2471.0809     -3507.6547      708.7897       6678.3575      7087.9195      13766.277      142015.22      41.409657      41.409657      82.819314          16040 
    172000   3186.207       600839.08      1198.5808      602620         599446.01      600451.21      1585.4627      268.20164     -1610.2941      6605.6553      7263.4439      13869.099      141964.27      41.404705      41.404705      82.809409          16040 
    173000   3204.3809      597110.36      1205.978       597481.73      595095.95      598753.41      2175.1379     -4122.9565     -492.04715      6643.3335      7097.9672      13741.301      142064.63      41.414459      41.414459      82.828917          16040 
    174000   3201.1475      602616.72      1213.3727      601411.5       604593.71      601844.96      2673.0037     -2437.7949     -2302.6805      6636.6301      7169.9079      13806.538      141916.47      41.400057      41.400057      82.800114          16040 
    175000   3193.5831      596157.35      1220.7678      595206.51      597205.12      596060.41      442.33666     -2815.4338      957.63747      6620.9475      7056.9834      13677.931      142157.52      41.423484      41.423484      82.846967          16040 
    176000   3189.5161      606820.05      1228.1634      607726.69      606279.29      606454.18      766.13165     -94.935964     -548.41298      6612.5158      7286.0687      13898.585      141750.74      41.383935      41.383935      82.76787           16040 
    177000   3162.8287      594168.1       1235.5576      595050.16      593387.07      594067.05      4260.0047     -2576.4932      55.824163      6557.1874      6993.1566      13550.344      142152.61      41.423006      41.423006      82.846013          16040 
    178000   3240.3879      603192.06      1242.9514      603683.09      602992.47      602900.61      317.67298     -287.78179      2587.8984      6717.9835      7180.2267      13898.21       141888.6       41.397346      41.397346      82.794692          16040 
    179000   3200.1036      597752.7       1250.3466      597566.72      596905.58      598785.81     -6105.9885     -2148.7057      1945.0098      6634.4659      7074.2883      13708.754      142024.08      41.410518      41.410518      82.821035          16040 
    180000   3192.4621      602083.61      1257.7418      600198.82      603974.8       602077.22     -3335.4983     -1626.5894      397.53084      6618.6234      7204.4649      13823.088      141913.26      41.399744      41.399744      82.799489          16040 
    181000   3194.6517      599837.75      1265.1378      599565.09      600636.49      599311.69     -2615.7417      1079.3532     -723.02183      6623.163       7092.1516      13715.315      141964.93      41.404769      41.404769      82.809537          16040 
    182000   3231.6762      600800.18      1272.5347      601339.72      600246.87      600813.95      207.29663      4177.7272     -1360.6905      6699.9222      7148.4316      13848.354      141943.06      41.402642      41.402642      82.805283          16040 
    183000   3220.2471      594593.18      1279.93        595462.28      594238.5       594078.77     -1791.7007     -3830.3798      2429.1352      6676.2275      7008.569       13684.797      142186.23      41.426272      41.426272      82.852543          16040 
    184000   3204.0773      609055.48      1287.3256      610006.08      607938.93      609221.42      5874.1047     -286.29632      1176.1178      6642.7042      7334.6995      13977.404      141677.01      41.376758      41.376758      82.753517          16040 
    185000   3220.8011      596772.33      1294.7201      597052.97      596819.99      596444.04      1883.9202      1776.4186     -3202.1684      6677.376       7049.7965      13727.173      142088.94      41.416821      41.416821      82.833641          16040 
    186000   3204.647       600549.58      1302.1147      599505.37      602349.03      599794.34      525.94238     -607.34697      2152.5663      6643.8852      7171.3873      13815.273      141947.7       41.403093      41.403093      82.806186          16040 
    187000   3190.469       600137.66      1309.5092      600261.79      600545.13      599606.06      811.17086     -4816.1722     -707.19225      6614.4913      7190.4111      13804.902      141956.88      41.403986      41.403986      82.807972          16040 
    188000   3201.4134      600873.22      1316.9026      599831.81      601758.77      601029.09     -518.39768      350.91291     -1847.9772      6637.1813      7188.8315      13826.013      141939.29      41.402275      41.402275      82.80455           16040 
    189000   3215.4208      595957.87      1324.2945      595397.78      595469.93      597005.89     -5906.324       91.832598     -207.88015      6666.2215      7124.4235      13790.645      142104.89      41.418371      41.418371      82.836742          16040 
    190000   3223.8739      606125.01      1331.6894      606565.83      605438.53      606370.66     -4385.8725     -540.80346      1691.2881      6683.7465      7198.9931      13882.74       141791.9       41.387939      41.387939      82.775879          16040 
    191000   3211.4204      594252.23      1339.0844      593081.05      593513.44      596162.21      173.05186     -610.41321      2266.1364      6657.9278      7053.8762      13711.804      142208.65      41.428449      41.428449      82.856898          16040 
    192000   3206.5193      606479.97      1346.478       607772.67      606060.58      605606.65      942.49305     -983.19333      1694.2651      6647.7668      7174.1528      13821.92       141790.57      41.38781       41.38781       82.77562           16040 
    193000   3204.14        597337.53      1353.8717      597071.41      598079.85      596861.33      2004.6205     -2393.5111     -338.57153      6642.8341      7190.6888      13833.523      142080.67      41.416017      41.416017      82.832034          16040 
    194000   3220.0633      601457.37      1361.265       602238.73      600503.64      601629.75      602.81871     -372.86793     -5421.5175      6675.8464      7095.7628      13771.609      141917.81      41.400187      41.400187      82.800375          16040 
    195000   3222.5247      599703.16      1368.6589      599780.87      598303.34      601025.27      306.04884     -844.08499      163.5733       6680.9493      7223.5782      13904.528      141992.69      41.407467      41.407467      82.814935          16040 
    196000   3221.0325      597489.03      1376.0499      597634.84      597627.22      597205.05     -207.91728      3653.4521      659.98787      6677.8557      7024.8963      13702.752      142044.74      41.412525      41.412525      82.825051          16040 
    197000   3224.7591      599409.28      1383.4432      599982.87      599558.7       598686.28      5393.7393      394.52495      187.08734      6685.5817      7240.1979      13925.78       142016.64      41.409795      41.409795      82.81959           16040 
    198000   3170.1065      601494.3       1390.8379      602858.08      601613.76      600011.05     -370.27873     -4622.411      -1127.6313      6572.2758      7220.1672      13792.443      141916.28      41.400038      41.400038      82.800076          16040 
    199000   3188.2927      598419.81      1398.2306      595796.71      600539.3       598923.43     -1611.8684     -96.934357     -2039.5126      6609.9794      7121.4754      13731.455      141983.75      41.406597      41.406597      82.813195          16040 
    200000   3230.4416      602857.92      1405.6313      601572.81      604990.76      602010.2      -1854.9775      2758.5055      3241.7277      6697.3627      7193.6932      13891.056      141926.66      41.401047      41.401047      82.802095          16040 
    201000   3213.4477      595959.33      1413.0224      597275.93      593951.79      596650.28      2095.4617      4095.4902      3027.909       6662.1309      7048.3277      13710.459      142134.47      41.421244      41.421244      82.842488          16040 
    202000   3199.419       604408.91      1420.4159      604985.08      604509.51      603732.14     -3565.6342      2554.7329      1155.7279      6633.0465      7179.8446      13812.891      141814.01      41.390091      41.390091      82.780183          16040 
    203000   3228.2836      597293.85      1427.809       597342.53      598170.29      596368.72     -1238.4738      1026.0377      394.46499      6692.8887      7154.49        13847.379      142116.31      41.41948       41.41948       82.83896           16040 
    204000   3217.1973      602648.88      1435.2008      602736.91      602889.36      602320.38     -1875.4059      254.71572     -1016.5362      6669.9045      7087.8981      13757.803      141868.86      41.395426      41.395426      82.790853          16040 
    205000   3214.2142      599971.24      1442.5927      601747.61      600049.49      598116.64      1491.6943      663.51762      6700.4336      6663.72        7071.5498      13735.27       141985.66      41.406783      41.406783      82.813566          16040 
    206000   3207.0766      600799.4       1449.9855      598813.55      603317.42      600267.23      1126.125       2712.4049      433.26273      6648.9223      7160.1998      13809.122      141965.83      41.404856      41.404856      82.809712          16040 
    207000   3171.9751      600645.73      1457.3799      600823.08      600646.57      600467.52      878.34201     -2152.5815     -323.9033       6576.1498      7129.9149      13706.065      141968.61      41.405126      41.405126      82.810252          16040 
    208000   3197.9983      600754.64      1464.7749      599115.82      601308.76      601839.33      2260.5055      5136.8587     -1758.4609      6630.1012      7125.6574      13755.759      141954.88      41.403791      41.403791      82.807583          16040 
    209000   3196.5702      602147.35      1472.1689      603028.01      600436.6       602977.43     -669.71308      2832.4196      2947.889       6627.1404      7138.2698      13765.41       141903.89      41.398833      41.398833      82.797666          16040 
    210000   3230.5004      598663.63      1479.5636      597718.96      598598.91      599673.02      1167.0287     -7049.1391      4407.267       6697.4846      7184.0765      13881.561      142069.18      41.414901      41.414901      82.829802          16040 
    211000   3198.0264      603388.05      1486.9577      603931.4       602542.88      603689.87      1125.4186     -393.43187     -948.45325      6630.1593      7152.619       13782.778      141882.04      41.396708      41.396708      82.793416          16040 
    212000   3214.6945      599764.02      1494.351       601815.01      599105.86      598371.18      196.34348      3647.7349     -2508.0569      6664.7158      7235.5129      13900.229      142048.89      41.412929      41.412929      82.825859          16040 
    213000   3196.9572      601577.26      1501.7442      601580.54      601226.26      601924.99      1935.899      -489.94029     -3324.5367      6627.9427      7101.6887      13729.631      141923.19      41.40071       41.40071       82.80142           16040 
    214000   3183.6528      597778.79      1509.1413      597693.61      598111.63      597531.14     -511.87948      1773.7195     -4799.3006      6600.36        7158.4314      13758.791      142109.78      41.418845      41.418845      82.837691          16040 
    215000   3212.1702      608058.55      1516.5364      608353.45      608676.37      607145.83     -1417.1838      5089.4848      3026.6512      6659.4825      7206.6832      13866.166      141726.15      41.381542      41.381542      82.763083          16040 
    216000   3214.9152      595420.16      1523.9305      597423.14      593493.46      595343.88      739.99163      791.34643      2841.819       6665.1732      7135.5944      13800.768      142147.41      41.422501      41.422501      82.845003          16040 
    217000   3168.4863      600827.03      1531.3236      600680.88      600589.43      601210.79      2350.3041      621.23071      1415.5306      6568.9168      7206.1362      13775.053      141877.51      41.396268      41.396268      82.792536          16040 
    218000   3204.3758      599198.7       1538.7197      600060.08      600495.92      597040.1      -2350.9344     -732.424        2277.5215      6643.3229      7198.1053      13841.428      141989.69      41.407176      41.407176      82.814351          16040 
    219000   3184.829       599303.86      1546.114       598615.67      598427.06      600868.85      2672.5579     -2117.4109      1277.9922      6602.7985      7112.3699      13715.168      141963.76      41.404655      41.404655      82.80931           16040 
    220000   3206.0896      601471.95      1553.5057      602928.63      601087.33      600399.89     -561.78069     -4060.2688      1415.6998      6646.8761      7188.1932      13835.069      141945.95      41.402923      41.402923      82.805847          16040 
    221000   3170.5418      594866.6       1560.9001      594666.11      595092.52      594841.17      1197.8828     -2782.6543      2347.0102      6573.1782      7042.2154      13615.394      142124.17      41.420244      41.420244      82.840488          16040 
    222000   3200.3977      601192.55      1568.2973      602196.74      601228         600152.9      -2951.4929     -1602.0678     -2430.5798      6635.0756      7224.2631      13859.339      141875.7       41.396092      41.396092      82.792184          16040 
    223000   3208.8434      598307.58      1575.693       598735.14      598533.59      597654.01     -1626.9293     -2045.2179      1256.1276      6652.5853      7094.3605      13746.946      142045.49      41.412599      41.412599      82.825197          16040 
    224000   3217.0586      600501.78      1583.088       598870.08      601505.7       601129.56      2074.3985      1474.0235     -3539.2843      6669.617       7175.765       13845.382      141982.71      41.406497      41.406497      82.812995          16040 
    225000   3212.6833      599983.58      1590.4807      598973.06      599600.89      601376.78      544.59919      5708.8429      1465.524       6660.5461      7039.2948      13699.841      141928.55      41.401231      41.401231      82.802463          16040 
    226000   3166.5426      603478.07      1597.8739      605717.2       604010.89      600706.12      3596.0271      223.89054     -2974.1625      6564.8872      7261.0281      13825.915      141799.95      41.388723      41.388723      82.777446          16040 
    227000   3203.017       595324.01      1605.269       595828.54      594814.47      595329.03      3746.2794     -1962.5862      1189.8592      6640.506       7044.917       13685.423      142133.22      41.421123      41.421123      82.842246          16040 
    228000   3150.681       604243.28      1612.6629      603862.26      605705.13      603162.46     -2817.6734     -1412.8411     -1085.4344      6532.0028      7216.063       13748.066      141789.29      41.387685      41.387685      82.775371          16040 
    229000   3177.9832      595969.67      1620.0563      595184.43      596820.74      595903.85      1120.6929     -3199.348       4199.3391      6588.6058      7206.6785      13795.284      142197.86      41.427401      41.427401      82.854802          16040 
    230000   3192.9253      602616.85      1627.4517      603116.45      602363.17      602370.94      303.25649     -256.21299      2850.4985      6619.5838      7170.2618      13789.846      141872.46      41.395776      41.395776      82.791553          16040 
    231000   3235.1216      596025.27      1634.8486      595741.78      594126.31      598207.73      340.43548     -3682.888      -2652.193       6707.0654      7074.4577      13781.523      142158.52      41.423581      41.423581      82.847161          16040 
    232000   3204.6453      604848.63      1642.2483      603155.48      606664.84      604725.57     -752.7621      -2104.2655     -1115.999       6643.8818      7160.1098      13803.992      141802.87      41.389007      41.389007      82.778015          16040 
    233000   3193.3005      595322.28      1649.6452      597401.48      594695.21      593870.17      1521.5198      2407.7185     -2460.7052      6620.3617      7123.7972      13744.159      142160.83      41.423804      41.423804      82.847608          16040 
    234000   3179.7159      602736.37      1657.0418      602637.34      604126.51      601445.25      1775.7801     -98.009144      2524.8574      6592.198       7149.2087      13741.407      141884         41.396899      41.396899      82.793797          16040 
    235000   3187.8501      597156.05      1664.4412      597637.19      599097.41      594733.56     -3556.4209      896.09404      112.66513      6609.062       7174.9578      13784.02       142105.11      41.418392      41.418392      82.836785          16040 
    236000   3188.4845      602505.61      1671.8382      601931.88      604094.37      601490.57      1166.0736     -1234.9553      4601.5325      6610.3772      7148.6875      13759.065      141872.5       41.39578       41.39578       82.79156           16040 
    237000   3227.9349      601213.11      1679.2356      600268.81      601847.89      601522.64     -2421.0991     -742.69988     -1583.791       6692.1658      7172.9063      13865.072      141941.96      41.402535      41.402535      82.805071          16040 
    238000   3194.0625      599846.76      1686.6305      598544.59      598649.02      602346.65     -4274.2786     -4122.7792      845.82233      6621.9415      7103.4496      13725.391      141953.84      41.40369       41.40369       82.80738           16040 
    239000   3192.4454      601831.24      1694.0289      601575.8       602664.49      601253.42      1454.9828     -1765.4131      1600.2473      6618.5889      7182.0736      13800.663      141885.78      41.397072      41.397072      82.794144          16040 
    240000   3185.1199      599011.81      1701.4295      598779.37      599206.08      599049.98      2936.5701      2281.6694     -588.62224      6603.4017      7108.4215      13711.823      141983.63      41.406586      41.406586      82.813172          16040 
    241000   3220.3429      605192.56      1708.831       603439         606302.7       605835.99      1827.6332     -3644.965       4630.8414      6676.426       7155.3592      13831.785      141748.59      41.383725      41.383725      82.767451          16040 
    242000   3204.0795      593680.41      1716.2351      593741.86      593901.07      593398.3      -2712.1025      1051.7905      2251.1299      6642.7088      7033.5828      13676.292      142150.18      41.422771      41.422771      82.845541          16040 
    243000   3199.2879      604885.11      1723.6361      606306.76      603774.25      604574.32      2318.5081     -1363.4731     -4695.7957      6632.7747      7136.4485      13769.223      141763.61      41.385187      41.385187      82.770373          16040 
    244000   3186.5006      596096.89      1731.0305      596020.19      594798.13      597472.35      1462.534       820.30009      1504.7357      6606.2641      7169.7763      13776.04       142089.38      41.416863      41.416863      82.833726          16040 
    245000   3183.7679      601745.24      1738.4287      599959.56      603442.24      601833.93      536.97897     -24.515076      1423.3988      6600.5987      7162.4771      13763.076      141865.6       41.395109      41.395109      82.790218          16040 
    246000   3231.1276      600872.9       1745.8259      600613.47      601646.14      600359.11     -282.52058      664.5953       464.33032      6698.7849      7068.1305      13766.915      141936.09      41.401964      41.401964      82.803928          16040 
    247000   3208.1363      598106.39      1753.2223      596849.56      599233.65      598235.95      3954.1822      3155.2314     -2445.0254      6651.1193      7107.8819      13759.001      142002.09      41.408381      41.408381      82.816762          16040 
    248000   3180.0775      604813.92      1760.6222      603947.55      605911.6       604582.62      2644.8614     -254.80984      1833.7076      6592.9478      7146.7683      13739.716      141766.33      41.385451      41.385451      82.770903          16040 
    249000   3203.3893      594202.62      1768.0235      596461.97      593987.36      592158.54      332.01396     -1716.3972      1343.6687      6641.2779      7152.5274      13793.805      142187.11      41.426357      41.426357      82.852714          16040 
    250000   3178.098       604029.31      1775.4262      604077.17      603102.09      604908.68     -190.12258      4883.2714     -1810.431       6588.8438      7184.6536      13773.497      141779.46      41.386729      41.386729      82.773458          16040 
    251000   3188.7714      595747.87      1782.8236      596903.91      594945         595394.69     -5273.3616     -918.99905      358.77591      6610.9719      7094.8159      13705.788      142128.28      41.420643      41.420643      82.841285          16040 
    252000   3196.817       604006.68      1790.2176      604481.22      603212.23      604326.58      2520.4045      324.33855      3872.6225      6627.6521      7151.3866      13779.039      141869.46      41.395485      41.395485      82.79097           16040 
    253000   3202.2403      596478.09      1797.6149      595978.62      597862.38      595593.26      3215.4173     -127.23118      833.0717       6638.8956      7030.8477      13669.743      142087.83      41.416713      41.416713      82.833426          16040 
    254000   3195.1039      602188.13      1805.0118      603903.77      603313.5       599347.12      1170.3168      99.411705      1212.7174      6624.1006      7123.8382      13747.939      141859.17      41.394484      41.394484      82.788969          16040 
    255000   3216.0109      600699.61      1812.4077      600548.9       601999.51      599550.42     -3921.187      -1925.8829      1710.9059      6667.4449      7136.9451      13804.39       141959.8       41.40427       41.40427       82.808539          16040 
    256000   3172.4793      600277.11      1819.8012      600476.06      600751.43      599603.84      1661.9899      767.80297     -1233.8939      6577.195       7130.6984      13707.893      141940.5       41.402393      41.402393      82.804786          16040 
    257000   3217.3173      600072.67      1827.1987      599644.78      600355.72      600217.51      4336.0395      3541.3862     -1047.6092      6670.1534      7174.4202      13844.574      141933.04      41.401668      41.401668      82.803336          16040 
    258000   3223.1067      597370.48      1834.5942      596929.54      598120.36      597061.53      2336.4514      3567.9552     -1120.325       6682.156       7018.2809      13700.437      142087.63      41.416694      41.416694      82.833387          16040 
    259000   3232.3612      599702.26      1841.9889      599005.93      599480.83      600620.01      3699.7374      3084.7046     -235.32423      6701.3424      7142.4641      13843.807      141987.86      41.406997      41.406997      82.813994          16040 
    260000   3195.5282      599341.19      1849.3852      598310.65      602455.33      597257.59     -3993.1314     -271.12418     -2238.1343      6624.9801      7071.1408      13696.121      141937.82      41.402132      41.402132      82.804265          16040 
    261000   3214.998       598007.96      1856.7803      597556.5       598437.04      598030.33     -3468.4672      1266.2374      3988.1913      6665.3449      7189.7343      13855.079      142042.21      41.41228       41.41228       82.824559          16040 
    262000   3167.1666      600533.94      1864.1773      600509.68      600569.5       600522.64     -770.05581     -566.83729      401.99851      6566.1807      7172.5079      13738.689      141928.2       41.401197      41.401197      82.802394          16040 
    263000   3219.6432      598367.37      1871.5747      600449         596389.85      598263.26      775.9497       94.012253     -673.83215      6674.9754      7130.4518      13805.427      142067.64      41.414751      41.414751      82.829502          16040 
    264000   3204.0008      603383.81      1878.971       606224.77      602248.85      601677.81     -2653.4578      994.94193     -1353.0864      6642.5457      7151.6908      13794.236      141883.27      41.396828      41.396828      82.793656          16040 
    265000   3176.3621      593822.51      1886.3709      595195.64      593999.26      592272.63     -2070.9512      1707.2346      483.2061       6585.245       7022.0475      13607.293      142204.63      41.428058      41.428058      82.856116          16040 
    266000   3185.7996      607115.48      1893.7718      606304.9       606868.77      608172.77      839.94479      690.61931      2014.0741      6604.8107      7244.6238      13849.434      141748.31      41.383698      41.383698      82.767396          16040 
    267000   3203.633       599484.86      1901.1731      598505.38      599137.7       600811.49     -398.94535      460.72144      1968.9158      6641.783       7063.8981      13705.681      141984.13      41.406635      41.406635      82.81327           16040 
    268000   3206.591       599740.41      1908.5672      598871.21      601263.03      599087         798.15792      1455.9771     -55.294209      6647.9155      7136.0842      13784          141976.47      41.40589       41.40589       82.81178           16040 
    269000   3160.0185      602302.91      1915.9626      603204.89      600916.97      602786.89      634.38133     -3029.4274     -1497.6681      6551.3613      7149.3477      13700.709      141863.88      41.394942      41.394942      82.789883          16040 
    270000   3213.9532      595360.34      1923.3573      596553.74      595516.53      594010.76      1809.5932      1902.7372     -1338.8803      6663.1789      7067.6505      13730.829      142094.08      41.417321      41.417321      82.834641          16040 
    271000   3185.632       605994.5       1930.7553      606519.89      607131.1       604332.53      2698.774       769.22471     -368.99302      6604.4634      7204.4811      13808.944      141797.54      41.388488      41.388488      82.776977          16040 
    272000   3180.4772      596264.83      1938.1527      595596.35      596439.01      596759.13     -896.30061      501.12239      60.396458      6593.7764      7036.0783      13629.855      142083.92      41.416334      41.416334      82.832667          16040 
    273000   3242.8544      603784.18      1945.5491      601961.22      605353.62      604037.7      -968.48552      2071.6601      2588.8113      6723.0971      7217.9926      13941.09       141829.69      41.391616      41.391616      82.783233          16040 
    274000   3170.9073      595325.76      1952.943       595659.32      594484.87      595833.08     -479.75222      2635.9555     -1297.8577      6573.9361      7072.8563      13646.792      142111.69      41.419032      41.419032      82.838063          16040 
    275000   3184.2108      603293.58      1960.3378      602632.73      604160.42      603087.59     -315.27311      4116.652      -3239.1904      6601.5169      7196.2888      13797.806      141828.32      41.391483      41.391483      82.782965          16040 
    276000   3185.1765      598914.64      1967.736       597889.49      597962.13      600892.31      292.5842       6349.9508     -2924.1734      6603.5189      7095.823       13699.342      141985.13      41.406732      41.406732      82.813464          16040 
    277000   3184.0749      601392.05      1975.1347      600656.63      603854.73      599664.78     -1508.4814      372.52607      3244.1361      6601.2351      7136.4662      13737.701      141913.01      41.39972       41.39972       82.799441          16040 
    278000   3224.1952      595634.48      1982.5327      595933.67      596557.66      594412.1       1579.6334     -1524.4656     -1427.0088      6684.4126      7058.6779      13743.09       142123.75      41.420203      41.420203      82.840405          16040 
    279000   3201.2929      606234.5       1989.9269      606451.38      607544.56      604707.55      3546.7617      3553.7173     -1070.8186      6636.9315      7246.0881      13883.02       141711.59      41.380124      41.380124      82.760249          16040 
    280000   3253.1945      594591.06      1997.3239      595210.54      594775.97      593786.68      2045.5581     -4129.0354      1936.6747      6744.5342      7016.1583      13760.692      142189.53      41.426592      41.426592      82.853185          16040 
    281000   3193.735       602241.86      2004.7184      602596.45      603666.57      600462.56      1154.6009     -2022.1727     -789.45972      6621.2624      7129.0823      13750.345      141928.64      41.40124       41.40124       82.80248           16040 
    282000   3251.24        598243.44      2012.1133      597699.09      598505.22      598526         2267.984       3368.9918     -519.71033      6740.482       7057.475       13797.957      142011.27      41.409273      41.409273      82.818546          16040 
    283000   3204.8741      602536.68      2019.5083      603220.05      601513.21      602876.78     -1635.6588      861.80187      2806.6591      6644.3561      7115.9523      13760.308      141872.45      41.395776      41.395776      82.791552          16040 
    284000   3206.6623      597263.84      2026.9041      597297         595927.96      598566.56     -517.32922      4718.6619      3839.2037      6648.0635      7152.0152      13800.079      142073.28      41.415299      41.415299      82.830599          16040 
    285000   3176.6515      603202.23      2034.2974      602244.66      603039.29      604322.74     -2057.6558      419.5613       6.2426481      6585.8449      7151.0915      13736.936      141829.05      41.391554      41.391554      82.783107          16040 
    286000   3226.5398      595173.74      2041.6923      597919.01      593933.35      593668.85      62.536141      682.63239      771.81485      6689.2736      7080.7078      13769.981      142154.34      41.423174      41.423174      82.846348          16040 
[...]
   3930000   3766.9217      601442.92      7041.8774      600934.92      601342.73      602051.12      295.65757      1887.0082      1378.291       7809.5952      8394.7589      16204.354      142689.8       41.522378      41.522378      82.761529          16040 
   3931000   3736.2721      600473.2       7049.4441      597980.81      599898.13      603540.66     -101.07289      249.49164     -1886.6832      7746.0522      8446.3629      16192.415      142719.56      41.525264      41.525264      82.767282          16040 
   3932000   3787.7118      595983.84      7057.01        594723.99      592625.01      600602.53     -1951.2248     -1931.8917      176.63674      7852.6972      8300.9618      16153.659      142822.5       41.535245      41.535245      82.787176          16040 
   3933000   3774.6543      602226.59      7064.5769      601572.58      598264.62      606842.56     -2155.3268      5088.6707     -395.61068      7825.6265      8415.2785      16240.905      142588.7       41.512569      41.512569      82.741978          16040 
   3934000   3764.1466      593758.88      7072.1431      591905.72      590371.26      598999.67      39.437392      2935.4005      1263.8758      7803.8417      8311.2371      16115.079      142923.45      41.545029      41.545029      82.806677          16040 
   3935000   3732.6314      603517.02      7079.7095      603185.81      601067.79      606297.45      2894.0498     -2358.5311     -3371.4672      7738.5044      8499.8056      16238.31       142594.06      41.513089      41.513089      82.743015          16040 
   3936000   3763.6088      597434.34      7087.2742      593448.35      594364.63      604490.05     -432.24138      4866.6046     -620.06037      7802.7268      8343.9706      16146.697      142837.16      41.536666      41.536666      82.790008          16040 
   3937000   3750.8677      602328.46      7094.8389      600160.78      598662.74      608161.86     -3422.5959      1398.6513     -1998.8707      7776.3119      8435.6522      16211.964      142659.34      41.519422      41.519422      82.755639          16040 
   3938000   3757.6656      599378.29      7102.4062      598381.33      596300.24      603453.29     -874.74962     -2027.1236     -835.9929       7790.4054      8399.2206      16189.626      142719.06      41.525216      41.525216      82.767186          16040 
   3939000   3763.7125      592502.45      7109.9733      591025.35      589675.78      596806.2       2606.9277     -670.7494       2529.3275      7802.9419      8297.8744      16100.816      142957.79      41.548357      41.548357      82.81331           16040 
   3940000   3719.7449      606277.98      7117.5388      605122.83      604212.1       609499.02     -1570.3302      2035.5828      372.45141      7711.7881      8569.316       16281.104      142473.38      41.501374      41.501374      82.719665          16040 
   3941000   3766.9892      596745.39      7125.107       595328.72      594446.82      600460.63      2843.9714     -1657.6012      2497.1696      7809.735       8338.5064      16148.241      142824.84      41.535472      41.535472      82.787629          16040 
   3942000   3769.9877      599669.25      7132.6754      596316.51      596667.55      606023.7      -158.31303     -339.68531      1546.7025      7815.9516      8371.6187      16187.57       142718.02      41.525114      41.525114      82.766984          16040 
   3943000   3763.7913      597933.47      7140.2438      595149.16      596857.45      601793.81     -3186.281       677.58386     -196.92228      7803.1051      8371.6917      16174.797      142751.95      41.528405      41.528405      82.773542          16040 
   3944000   3741.2117      599051.65      7147.8121      598574.29      595257.82      603322.83      1324.4361     -3051.1854     -1327.9348      7756.293       8417.103       16173.396      142754.83      41.528684      41.528684      82.7741            16040 
   3945000   3727.6529      606799.88      7155.3804      602986.35      607942.03      609471.27      3320.8382      1199.4629     -3088.6732      7728.1828      8560.5906      16288.773      142447.63      41.498874      41.498874      82.714681          16040 
   3946000   3756.1468      594565.96      7162.9468      591938.35      592575.67      599183.85      1534.7121      178.7372       4155.3528      7787.2566      8332.5327      16119.789      142896.5       41.542418      41.542418      82.801472          16040 
   3947000   3735.5824      602848.02      7170.515       602391.28      597810.27      608342.5      -1885.7185     -358.41134     -129.87528      7744.6224      8482.2238      16226.846      142609.35      41.514573      41.514573      82.745972          16040 
   3948000   3809.6898      597041.47      7178.0809      594949.56      594259.5       601915.36     -3343.4482     -1123.9073      538.75515      7898.2621      8259.2496      16157.512      142793.07      41.532392      41.532392      82.78149           16040 
   3949000   3782.819       599246.85      7185.6451      598617.23      594249.92      604873.4       501.12343      3207.7376      2397.448       7842.5535      8336.1303      16178.684      142736.45      41.526902      41.526902      82.770547          16040 
   3950000   3775.854       605381.29      7193.2117      603289.6       603390.02      609464.24     -326.48907      1653.0091     -1910.7124      7828.1137      8423.6416      16251.755      142541.25      41.507964      41.507964      82.732799          16040 
   3951000   3714.5349      594115.81      7200.7807      593547.7       588686.29      600113.44     -1905.758      -3599.9634     -2224.9613      7700.9867      8403.0703      16104.057      142935.88      41.546234      41.546234      82.809078          16040 
   3952000   3760.0446      603994.12      7208.3471      604974.37      599911.19      607096.8       3100.3656      1678.1152      2812.1232      7795.3376      8428.3814      16223.719      142615.06      41.515126      41.515126      82.747076          16040 
   3953000   3738.677       598761.04      7215.9156      596720.53      596679.47      602883.13      1781.1297     -4032.3898     -2361.9569      7751.038       8400.1155      16151.154      142808.33      41.533872      41.533872      82.784439          16040 
   3954000   3777.946       599224.87      7223.4798      597631.14      598174.19      601869.29     -3938.474       3164.0103     -6217.4084      7832.4507      8367.3666      16199.817      142676.78      41.521115      41.521115      82.759012          16040 
   3955000   3791.9575      601592.53      7231.0488      600623.41      599785.74      604368.43      559.62002      686.59354     -1002.9346      7861.4994      8325.5084      16187.008      142710.53      41.524388      41.524388      82.765536          16040 
   3956000   3763.1815      598706.48      7238.6146      599233.57      594457.7       602428.18     -2282.2518      2810.5129     -1629.954       7801.841       8358.0169      16159.858      142781.92      41.531311      41.531311      82.779335          16040 
   3957000   3761.796       602461.74      7246.1798      599644.4       600154.39      607586.43     -2944.9578      4009.6         3746.1847      7798.9685      8413.3275      16212.296      142641.35      41.517678      41.517678      82.752161          16040 
   3958000   3750.4724      596085.4       7253.7476      593851.6       594939.07      599465.53     -1176.7405      1807.6057      2904.156       7775.4924      8338.0844      16113.577      142903.53      41.543099      41.543099      82.80283           16040 
   3959000   3771.9057      607266.31      7261.3148      603751.26      607721.09      610326.56      1989.0319      1055.6282      1045.4235      7819.9279      8460.3131      16280.241      142457.77      41.499859      41.499859      82.716645          16040 
   3960000   3722.7098      597814.1       7268.8838      594210.61      598743.53      600488.17      1691.1523     -3839.091      -2828.0916      7717.9349      8418.1636      16136.099      142841.51      41.537088      41.537088      82.79085           16040 
   3961000   3791.9466      598958.87      7276.451       597592.51      595874.75      603409.37     -405.2094       1956.6041     -3388.9669      7861.4768      8315.2963      16176.773      142729.63      41.52624       41.52624       82.769228          16040 
   3962000   3775.5505      600250.46      7284.0186      598805.22      598486.45      603459.71      4399.655       1726.3194      4875.7027      7827.4844      8359.9887      16187.473      142700.68      41.523433      41.523433      82.763633          16040 
   3963000   3772.2009      599557.5       7291.5842      598047.16      597994.72      602630.62      877.07374      2875.1397     -2277.1524      7820.5399      8348.5404      16169.08       142747.68      41.527991      41.527991      82.772717          16040 
   3964000   3765.6075      603861.24      7299.1507      602606.56      600940.85      608036.31     -1461.5784      53.099753     -1506.9914      7806.8706      8405.2751      16212.146      142630.69      41.516643      41.516643      82.750099          16040 
   3965000   3807.4498      596415.67      7306.7154      597609.09      591498.19      600139.74     -5089.7051     -717.19042      224.93159      7893.618       8230.7218      16124.34       142863.44      41.539214      41.539214      82.795086          16040 
   3966000   3749.4135      601757.44      7314.2823      600702.69      599775.79      604793.85     -478.55648      923.19948      2083.2189      7773.297       8413.0009      16186.298      142697.69      41.523142      41.523142      82.763053          16040 
   3967000   3766.5332      599317.57      7321.8505      596315.81      595615.39      606021.52      196.02638      1222.1493     -2929.9779      7808.7896      8353.4897      16162.279      142760.83      41.529266      41.529266      82.775259          16040 
   3968000   3760.8573      598797.04      7329.4168      599302.38      593975.53      603113.21     -696.01646     -1703.3255     -1579.1278      7797.0223      8339.3433      16136.366      142829.07      41.535882      41.535882      82.788446          16040 
   3969000   3774.2383      606483.92      7336.9831      603804.46      606016.16      609631.13     -1755.783       992.41438     -2309.2273      7824.7638      8432.4989      16257.263      142505.83      41.504525      41.504525      82.725946          16040 
   3970000   3755.2573      594461.37      7344.5514      591792.68      593101.73      598489.68     -3529.8909      178.88231      812.18886      7785.4124      8299.7949      16085.207      142962.8       41.548841      41.548841      82.814276          16040 
   3971000   3748.0264      602434.1       7352.1187      600758.27      601876.15      604667.88      4396.2887      2517.9351     -1627.7582      7770.4213      8435.204       16205.625      142637.06      41.517261      41.517261      82.75133           16040 
   3972000   3745.5072      600403.65      7359.6849      598010.2       596894.21      606306.52     -2393.9395      1729.7537     -520.67237      7765.1986      8412.7241      16177.923      142709.54      41.524292      41.524292      82.765344          16040 
   3973000   3750.7084      599681.08      7367.2528      595653.81      600168.15      603221.29      1318.2563     -3006.0683      1072.2938      7775.9817      8385.3214      16161.303      142750.2       41.528235      41.528235      82.773204          16040 
   3974000   3788.3932      603026.42      7374.82        600090.78      601396.16      607592.32      4064.5592     -1260.0126      3812.5199      7854.1098      8358.1322      16212.242      142613.43      41.514968      41.514968      82.746761          16040 
   3975000   3776.7773      592130.93      7382.3864      590074.72      592191.44      594126.64     -1461.9688      659.0671      -2810.8258      7830.0277      8251.3635      16081.391      142963.28      41.548888      41.548888      82.814369          16040 
   3976000   3749.0433      607749.96      7389.9551      608080.7       605626.84      609542.33     -959.00046     -3324.3758     -1374.0471      7772.5296      8494.5138      16267.043      142465.94      41.500652      41.500652      82.718226          16040 
   3977000   3745.5519      594612.59      7397.5197      589504.59      591599.92      602733.26     -1694.353       1687.43        1582.3223      7765.2913      8329.4722      16094.763      142922.3       41.544918      41.544918      82.806456          16040 
   3978000   3739.5324      605553.22      7405.0873      600437.69      605282.99      610938.98      377.97587      3675.6267      5067.8165      7752.8115      8481.3503      16234.162      142546.82      41.508504      41.508504      82.733876          16040 
   3979000   3749.1492      597823.43      7412.6566      599396.61      593252.12      600821.57     -834.90278      3429.6815     -517.40375      7772.7492      8354.1354      16126.885      142830.51      41.536022      41.536022      82.788724          16040 
   3980000   3787.4727      600543.55      7420.2219      599534.7       598857.45      603238.51     -1835.6798     -1742.3355     -1102.554       7852.2015      8301.745       16153.946      142755.29      41.528729      41.528729      82.774189          16040 
   3981000   3779.7078      602018.78      7427.7873      598387.54      600944.73      606724.08      4482.3421      2869.6898     -3884.0436      7836.1033      8335.4395      16171.543      142708.42      41.524184      41.524184      82.765129          16040 
   3982000   3793.9459      599104.42      7435.3522      599486.55      596414.01      601412.72     -1731.871       5136.5168      3727.6551      7865.6218      8293.6636      16159.285      142740.69      41.527313      41.527313      82.771367          16040 
   3983000   3756.4204      599258.38      7442.9177      598095.09      598795.14      600884.92     -4313.0357     -2907.7303      3195.3689      7787.8238      8360.8983      16148.722      142766.35      41.529801      41.529801      82.776326          16040 
   3984000   3748.5087      597486.42      7450.4824      594631.89      597753.59      600073.78     -2413.666      -835.58143     -1974.9478      7771.4211      8330.2621      16101.683      142890.48      41.541834      41.541834      82.800309          16040 
   3985000   3776.3671      604068.94      7458.0492      604934.92      601222.85      606049.04      854.43217      1138.52        2124.0855      7829.1774      8380.3343      16209.512      142601.72      41.513832      41.513832      82.744497          16040 
   3986000   3757.8632      599607.63      7465.6135      598061.43      596096.95      604664.5       426.96025     -798.79132     -4210.5632      7790.815       8337.1607      16127.976      142816.48      41.534662      41.534662      82.786014          16040 
   3987000   3773.2777      599552.19      7473.1802      596232.24      598908.27      603516.07      899.94061      1743.7539     -160.23119      7822.7723      8325.1535      16147.926      142762.71      41.529449      41.529449      82.775623          16040 
   3988000   3774.3905      601291.88      7480.7478      601913.92      595757.25      606204.45      173.40932     -3180.7106     -3684.7878      7825.0794      8357.1066      16182.186      142670.82      41.520536      41.520536      82.757858          16040 
   3989000   3780.0436      600158.4       7488.3129      598379.41      596453.96      605641.84     -75.546657      924.78068     -518.07959      7836.7995      8299.4041      16136.204      142793.34      41.532419      41.532419      82.781543          16040 
   3990000   3756.7574      597450.72      7495.8776      594999.65      597338.98      600013.55      1164.7239      384.75362     -441.34812      7788.5224      8370.052       16158.574      142729.77      41.526254      41.526254      82.769255          16040 
   3991000   3747.8866      602162.56      7503.4429      598528.91      601057.24      606901.53     -2122.8752     -134.83112      429.78796      7770.1315      8384.5651      16154.697      142738.54      41.527105      41.527105      82.770952          16040 
   3992000   3793.8823      598017.68      7511.009       596948.77      593829.93      603274.33     -1797.3881      124.53539     -536.7686       7865.49        8263.8106      16129.301      142804.67      41.533517      41.533517      82.783732          16040 
   3993000   3755.8778      604434.23      7518.5776      604712.88      600837.13      607752.68      4518.3961      4328.6273     -208.27091      7786.6989      8422.8625      16209.561      142590.11      41.512706      41.512706      82.742251          16040 
   3994000   3736.9104      594070.8       7526.1454      593088.89      591745.71      597377.81      102.04711      216.70196      1021.1944      7747.3755      8322.9005      16070.276      142960.74      41.548642      41.548642      82.813879          16040 
   3995000   3741.2871      606306.5       7533.7117      607089.8       602567.07      609262.63      4542.9459     -3729.3044     -604.67554      7756.4493      8486.9375      16243.387      142496.48      41.503617      41.503617      82.724135          16040 
   3996000   3758.2409      599075.2       7541.2793      596398.16      596831.61      603995.81     -1425.6824     -1533.1151      3586.4884      7791.5981      8354.0986      16145.697      142755.02      41.528703      41.528703      82.774137          16040 
   3997000   3781.6361      599673.16      7548.8471      594588.11      598737.24      605694.12      1593.0443     -2117.1919      245.05994      7840.1011      8307.6323      16147.733      142748.94      41.528113      41.528113      82.772961          16040 
   3998000   3749.754       601433.03      7556.4157      598394.37      601306.68      604598.05     -2300.6102      2141.0598     -809.20977      7774.003       8403.3552      16177.358      142668.41      41.520302      41.520302      82.757392          16040 
   3999000   3764.8174      596851.46      7563.9824      596616.76      596280.36      597657.25     -2827.2898      523.14757      340.38543      7805.2324      8303.7226      16108.955      142849.91      41.537902      41.537902      82.792472          16040 
   4000000   3772.4006      605690.07      7571.5563      602408.81      602555.87      612105.53      1039.6613     -1958.5142      588.55064      7820.9539      8425.9685      16246.922      142481.5       41.502163      41.502163      82.721237          16040 
Loop time of 7571.56 on 8 procs for 1000000 steps with 16040 atoms

Performance: 5.706 ns/day, 4.206 hours/ns, 132.073 timesteps/s
59.7% CPU use with 1 MPI tasks x 8 OpenMP threads

MPI task timing breakdown:
Section |  min time  |  avg time  |  max time  |%varavg| %total
---------------------------------------------------------------
Pair    | 7304.7     | 7304.7     | 7304.7     |   0.0 | 96.48
Neigh   | 10.367     | 10.367     | 10.367     |   0.0 |  0.14
Comm    | 33.438     | 33.438     | 33.438     |   0.0 |  0.44
Output  | 1.1438     | 1.1438     | 1.1438     |   0.0 |  0.02
Modify  | 196.95     | 196.95     | 196.95     |   0.0 |  2.60
Other   |            | 24.95      |            |       |  0.33

Nlocal:          16040 ave       16040 max       16040 min
Histogram: 1 0 0 0 0 0 0 0 0 0
Nghost:          14067 ave       14067 max       14067 min
Histogram: 1 0 0 0 0 0 0 0 0 0
Neighs:              0 ave           0 max           0 min
Histogram: 1 0 0 0 0 0 0 0 0 0
FullNghs:  1.62894e+06 ave 1.62894e+06 max 1.62894e+06 min
Histogram: 1 0 0 0 0 0 0 0 0 0

Total # of neighbors = 1628944
Ave neighs/atom = 101.55511
Neighbor list builds = 28988
Dangerous builds = 0
Total wall time: 8:16:38
