
atom_style atomic
units metal
boundary p p p
#atom_modify sort 0 0.0
newton on

read_data data.lammps
Reading data file ...
  orthogonal box = (0 0 0) to (43.790145 43.790145 87.58029)
  1 by 1 by 1 MPI processor grid
  reading atoms ...
  16040 atoms
  read_data CPU = 0.042 seconds
# replicate 10 10 20

### interactions

pair_style flare
pair_coeff * * lmp.flare
Reading potential file lmp.flare with DATE: Thu

# compute unc all flare/std/atom L_inv_lmp.flare sparse_desc_lmp.flare
# compute MaxUnc all reduce max c_unc

mass 1 12.011000
mass 2 28.085000

thermo_style custom step temp press cpu pxx pyy pzz pxy pxz pyz ke pe etotal vol lx ly lz atoms    #c_MaxUnc
thermo 1000
timestep 0.0005
restart 100000 restart_*.dat

#################### Equilibrate at P and T_es ##############################
velocity all create $T 41928459 rot yes dist gaussian
velocity all create 3800 41928459 rot yes dist gaussian
fix mom all momentum 1000 linear 1 1 1 angular

fix 1 all npt temp $T $T $(100.0*dt) iso $P $P $(1000.0*dt)
fix 1 all npt temp 3800 $T $(100.0*dt) iso $P $P $(1000.0*dt)
fix 1 all npt temp 3800 3800 $(100.0*dt) iso $P $P $(1000.0*dt)
fix 1 all npt temp 3800 3800 0.050000000000000002776 iso $P $P $(1000.0*dt)
fix 1 all npt temp 3800 3800 0.050000000000000002776 iso 100000 $P $(1000.0*dt)
fix 1 all npt temp 3800 3800 0.050000000000000002776 iso 100000 100000 $(1000.0*dt)
fix 1 all npt temp 3800 3800 0.050000000000000002776 iso 100000 100000 0.5
dump 1 all custom 1000 1equil.bin id type x y z vx vy vz
run   10000 # report performance
Neighbor list info ...
  update every 1 steps, delay 10 steps, check yes
  max neighbors/atom: 2000, page size: 100000
  master list distance cutoff = 6
  ghost atom cutoff = 6
  binsize = 6, bins = 8 8 15
  1 neighbor lists, perpetual/occasional/extra = 1 0 0
  (1) pair flare/kk, perpetual
      attributes: full, newton on, kokkos_device
      pair build: full/bin/kk/device
      stencil: full/bin/3d
      bin: kk/device
Per MPI rank memory allocation (min/avg/max) = 16.04 | 16.04 | 16.04 Mbytes
   Step          Temp          Press           CPU            Pxx            Pyy            Pzz            Pxy            Pxz            Pyz           KinEng         PotEng         TotEng         Volume           Lx             Ly             Lz          Atoms   
         0   3800           84539.211      0              85134.427      84099.503      84383.704      1075.1264     -195.07342     -877.12361      7878.1732     -2985.8921      4892.2811      167941.93      43.790145      43.790145      87.58029           16040 
      1000   3768.521       96737.181      6.3881964      95672.874      97188.348      97350.32      -965.77679     -13.832969     -101.01527      7812.9109      5376.2423      13189.153      172682.16      44.198327      44.198327      88.396654          16040 
      2000   3835.6318      97144.279      12.712276      99098.375      95750.274      96584.189      1292.7775      289.96979     -1173.1822      7952.045       5755.9301      13707.975      173166.39      44.239601      44.239601      88.479202          16040 
      3000   3772.5929      101869.04      19.029997      101343.05      102869.77      101394.29     -1341.8591      716.84164     -186.43622      7821.3526      5474.5749      13295.928      172413.43      44.175387      44.175387      88.350774          16040 
      4000   3777.3597      101342.54      25.351028      101326.82      102257.87      100442.94      2020.6914     -536.97391     -1454.8168      7831.2352      5485.969       13317.204      172509.61      44.1836        44.1836        88.367201          16040 
      5000   3831.8995      97593.262      31.668811      97050.877      97592.082      98136.826     -832.143        67.284538     -391.49092      7944.3072      5596.0698      13540.377      172941.53      44.220444      44.220444      88.440889          16040 
      6000   3773.2154      100552.56      37.994286      101401.52      98636.944      101619.22     -876.57015     -1360.7753     -1418.0053      7822.6433      5454.6225      13277.266      172517.75      44.184295      44.184295      88.36859           16040 
      7000   3773.1968      98977.55       44.311979      98459.336      99302.388      99170.928     -1256.4266     -3704.0679      76.616052      7822.6048      5457.7071      13280.312      172606.85      44.1919        44.1919        88.383801          16040 
      8000   3840.6052      100015.99      50.637133      99629.993      100458.83      99959.141     -1745.7536      1850.2272      4.415655       7962.356       5480.1338      13442.49       172746.46      44.203812      44.203812      88.407624          16040 
      9000   3771.0423      105901.06      56.955329      107787.12      104696.88      105219.2       2058.4863      1030.5146     -963.33538      7818.1379      5552.488       13370.626      172216.89      44.158595      44.158595      88.31719           16040 
     10000   3827.4511      104803.6       63.268332      106243.29      104514.43      103653.09     -296.30226      1265.925      -4.6926193      7935.0849      5454.6339      13389.719      172230.36      44.159747      44.159747      88.319493          16040 
Loop time of 63.2683 on 8 procs for 10000 steps with 16040 atoms

Performance: 6.828 ns/day, 3.515 hours/ns, 158.057 timesteps/s
61.6% CPU use with 1 MPI tasks x 8 OpenMP threads

MPI task timing breakdown:
Section |  min time  |  avg time  |  max time  |%varavg| %total
---------------------------------------------------------------
Pair    | 60.186     | 60.186     | 60.186     |   0.0 | 95.13
Neigh   | 0.09986    | 0.09986    | 0.09986    |   0.0 |  0.16
Comm    | 0.40511    | 0.40511    | 0.40511    |   0.0 |  0.64
Output  | 0.013015   | 0.013015   | 0.013015   |   0.0 |  0.02
Modify  | 2.3098     | 2.3098     | 2.3098     |   0.0 |  3.65
Other   |            | 0.2543     |            |       |  0.40

Nlocal:          16040 ave       16040 max       16040 min
Histogram: 1 0 0 0 0 0 0 0 0 0
Nghost:          13641 ave       13641 max       13641 min
Histogram: 1 0 0 0 0 0 0 0 0 0
Neighs:              0 ave           0 max           0 min
Histogram: 1 0 0 0 0 0 0 0 0 0
FullNghs:   1.3717e+06 ave  1.3717e+06 max  1.3717e+06 min
Histogram: 1 0 0 0 0 0 0 0 0 0

Total # of neighbors = 1371704
Ave neighs/atom = 85.517706
Neighbor list builds = 325
Dangerous builds = 0
run  990000
Per MPI rank memory allocation (min/avg/max) = 16.11 | 16.11 | 16.11 Mbytes
   Step          Temp          Press           CPU            Pxx            Pyy            Pzz            Pxy            Pxz            Pyz           KinEng         PotEng         TotEng         Volume           Lx             Ly             Lz          Atoms   
     10000   3827.4511      104803.6       0              106243.29      104514.43      103653.09     -296.30226      1265.925      -4.6926193      7935.0849      5454.6339      13389.719      172230.36      44.159747      44.159747      88.319493          16040 
     11000   3788.5785      100011.31      6.3111115      99738.801      100176.5       100118.62      1581.5793      240.90443      77.491239      7854.4941      5489.4404      13343.934      172581.33      44.189722      44.189722      88.379445          16040 
     12000   3787.8083      100165.66      12.63719       99917.856      98736.798      101842.32      2224.8943      2140.0063     -266.22757      7852.8973      5471.4912      13324.388      172615.68      44.192653      44.192653      88.385307          16040 
     13000   3798.8677      98797.286      18.953856      98905.202      99694.62       97792.034     -1676.9989      1823.3988     -193.70515      7875.8257      5490.0203      13365.846      172590.94      44.190542      44.190542      88.381085          16040 
     14000   3782.5012      101298.78      25.275417      101345.75      101732.14      100818.46      161.93457     -722.44202      445.81895      7841.8947      5508.507       13350.402      172465.06      44.179796      44.179796      88.359592          16040 
     15000   3805.201       97594.959      31.59354       98999.645      96847.181      96938.052      1064.0511      1289.1837     -2193.3901      7888.9559      5393.2045      13282.16       172661.2       44.196538      44.196538      88.393076          16040 
     16000   3766.8986      102403.82      37.908822      104082.5       100358.44      102770.51      3616.107       867.45296     -1922.5556      7809.5472      5405.8675      13215.415      172279.34      44.163932      44.163932      88.327864          16040 
     17000   3808.963       101579.45      44.224474      101959.75      101347.05      101431.54      50.380339     -461.17162      672.98923      7896.7553      5382.0038      13278.759      172329.22      44.168194      44.168194      88.336389          16040 
     18000   3784.7851      101191.02      50.547826      100059.31      101289.5       102224.23      1356.2104     -648.01124      1609.4127      7846.6295      5549.9339      13396.563      172542.13      44.186376      44.186376      88.372752          16040 
     19000   3809.4835      101331.95      56.871302      100178.1       100088.94      103728.81     -942.36951      1195.2694     -1057.8512      7897.8345      5412.2918      13310.126      172419.99      44.175948      44.175948      88.351895          16040 
     20000   3795.8138      103414.48      63.193498      104129.35      103336.58      102777.52      641.75692     -1436.9411     -1073.6553      7869.4944      5560.5651      13430.059      172460.94      44.179444      44.179444      88.358888          16040 
     21000   3804.1915      99967.985      69.512284      99915.942      100072.66      99915.357      334.04393     -652.96024     -2097.9107      7886.8631      5542.4952      13429.358      172664.62      44.19683       44.19683       88.39366           16040 
     22000   3826.9871      101270.16      75.828869      102629.08      100462.72      100718.68     -1836.9267      1430.5544      139.58782      7934.1229      5371.9476      13306.07       172403.86      44.17457       44.17457       88.349139          16040 
     23000   3873.8887      105154.32      82.144008      106248.94      103566.17      105647.84      685.55051      761.67023      218.9902       8031.3595      5475.1827      13506.542      172165.26      44.154182      44.154182      88.308364          16040 
     24000   3806.1721      101780.84      88.468829      101250.5       102255.21      101836.81     -246.41343     -1412.881       1083.5026      7890.9691      5467.9274      13358.896      172402.74      44.174474      44.174474      88.348948          16040 
     25000   3787.0186      100419.15      94.796058      100599.29      100729.39      99928.749      1735.9108     -791.12426     -1331.33        7851.2601      5324.7982      13176.058      172368.92      44.171586      44.171586      88.343172          16040 
     26000   3791.0589      98917.73       101.11436      98316.348      97875.924      100560.92     -161.8727       376.24684     -1127.527       7859.6364      5422.5656      13282.202      172673.29      44.19757       44.19757       88.39514           16040 
     27000   3760.1116      97987.894      107.43805      98679.248      96023.666      99260.768      1325.7491      1156.7439     -1062.9705      7795.4764      5291.2771      13086.753      172474.53      44.180605      44.180605      88.36121           16040 
     28000   3834.0214      98121.733      113.75771      98710.486      98117.095      97537.62      -1213.3202      1571.6933     -491.12         7948.7064      5350.7676      13299.474      172646.97      44.195324      44.195324      88.390649          16040 
     29000   3789.8861      100935.2       120.07369      99808.1        101044.7       101952.79      1786.1098      1643.1609     -911.00797      7857.205       5349.2583      13206.463      172374.06      44.172025      44.172025      88.34405           16040 
     30000   3783.8576      101127.54      126.39787      102303.83      100712.91      100365.89     -333.02538     -0.18030498    -537.77226      7844.7066      5301.5914      13146.298      172267.46      44.162917      44.162917      88.325834          16040 
     31000   3805.9563      99020.369      132.72452      98844.416      99219.912      98996.78       431.5024       191.26404     -474.10718      7890.5217      5421.7734      13312.295      172642.91      44.194977      44.194977      88.389955          16040 
     32000   3801.6186      99388.702      139.04133      100098.79      99656.336      98410.982      70.981642      2049.5431     -1993.9744      7881.529       5459.4396      13340.969      172618.32      44.192879      44.192879      88.385758          16040 
     33000   3781.2603      103856.74      145.36608      103672.27      103100.77      104797.18     -2305.2615      128.29165      1925.039       7839.3219      5371.6438      13210.966      172115.22      44.149904      44.149904      88.299807          16040 
     34000   3795.5288      98127.781      151.68455      96792.481      98549.377      99041.485      1955.0057     -65.987595      2481.5556      7868.9034      5492.1658      13361.069      172749         44.204028      44.204028      88.408057          16040 
     35000   3796.007       100051.3       158.00026      98058.101      100570.02      101525.79      1575.1222      1229.4439     -292.69702      7869.8948      5350.9827      13220.877      172398.5       44.174112      44.174112      88.348224          16040 
     36000   3749.0574      95494.965      164.3191       95899.464      95464.661      95120.77      -179.85265      905.54939     -752.92286      7772.5588      5512.4545      13285.013      172850.56      44.212689      44.212689      88.425378          16040 
     37000   3842.6897      97731.001      170.64319      97875.248      97601.037      97716.717      1604.4135     -866.71808     -1427.6089      7966.6776      5403.6113      13370.289      172752.51      44.204327      44.204327      88.408655          16040 
     38000   3777.2208      101912.11      176.96243      100824.6       102773.26      102138.48      368.45573     -1801.6247      457.12355      7830.9473      5394.6188      13225.566      172232.38      44.159919      44.159919      88.319837          16040 
     39000   3790.381       97614.241      183.2887       95459.522      97315.411      100067.79     -227.48004     -316.56922     -239.60621      7858.2311      5446.7143      13304.945      172678.56      44.19802       44.19802       88.396039          16040 
     40000   3826.2062      100616.37      189.61209      101297.12      101252.83      99299.164     -1034.5        -328.86203      1229.9169      7932.5039      5327.1002      13259.604      172390.44      44.173424      44.173424      88.346848          16040 
     41000   3776.3817      101097.85      195.93634      101836.58      101532.39      99924.575     -459.1452       411.67804      82.475588      7829.2076      5339.5837      13168.791      172378.52      44.172405      44.172405      88.344811          16040 
     42000   3795.8203      93478.092      202.25911      93161.907      94015.896      93256.474     -71.072013     -431.88113      1829.7993      7869.5078      5495.1707      13364.679      173020.98      44.227215      44.227215      88.45443           16040 
     43000   3772.766       99445.067      208.58876      99915.949      98792.487      99626.765     -1208.9866     -2197.9586      537.93274      7821.7115      5358.6209      13180.332      172430.16      44.176816      44.176816      88.353631          16040 
     44000   3810.5557      99802.719      214.91914      100736.58      98490.421      100181.15      303.21266     -2210.4825     -175.44815      7900.0572      5383.3192      13283.376      172354.11      44.170321      44.170321      88.340641          16040 
     45000   3808.6312      102577.51      221.2402       102444.11      102857.8       102430.6      -202.6471       325.51988     -969.30507      7896.0673      5405.6674      13301.735      172184.08      44.15579       44.15579       88.311581          16040 
     46000   3811.5714      98459.786      227.55901      98544.246      98990.678      97844.434      2680.3173      875.49165     -2105.9479      7902.163       5367.1263      13269.289      172489.89      44.181916      44.181916      88.363832          16040 
     47000   3770.8909      98071.196      233.87654      97286.473      97787.802      99139.314     -545.02626     -1226.4373     -49.234761      7817.8241      5399.9645      13217.789      172719.52      44.201514      44.201514      88.403028          16040 
     48000   3787.9543      97174.378      240.19299      99329.075      96374.227      95819.833      497.45632     -1301.8232      2168.2803      7853.1999      5264.5923      13117.792      172663.49      44.196734      44.196734      88.393467          16040 
     49000   3776.5687      95417.456      246.51882      95918.227      95744.916      94589.225      814.40587      55.661828      291.05641      7829.5954      5324.7656      13154.361      172769.6       44.205786      44.205786      88.411571          16040 
     50000   3780.9805      98536.933      252.85097      98199.438      99237.456      98173.906     -229.52005      500.56699      1331.5         7838.7418      5273.4452      13112.187      172449.81      44.178494      44.178494      88.356988          16040 
     51000   3779.7128      100699.5       259.17424      99900.387      99741.309      102456.8      -343.52741      54.342706     -2041.0028      7836.1136      5362.2387      13198.352      172400.58      44.17429       44.17429       88.34858           16040 
     52000   3820.0097      100799.99      265.49137      101244.03      100452.49      100703.46      1845.4864     -208.19854      830.71886      7919.6574      5276.3165      13195.974      172378.77      44.172427      44.172427      88.344855          16040 
     53000   3808.1646      99444.131      271.8019       99579.002      99709.461      99043.93       387.77809      233.60776      2320.3572      7895.1001      5473.556       13368.656      172605.6       44.191794      44.191794      88.383588          16040 
     54000   3787.0838      100918.42      278.11354      102443.17      100154.6       100157.5      -785.33719     -1470.432       270.26022      7851.3952      5288.3992      13139.794      172407.69      44.174897      44.174897      88.349795          16040 
     55000   3802.4986      96703.359      284.42318      96453.387      97171.446      96485.243     -94.598105      2669.4461     -312.23994      7883.3532      5335.7373      13219.091      172758.84      44.204868      44.204868      88.409735          16040 
     56000   3839.8098      101076.84      290.74196      101122.78      101658.75      100448.99     -1314.9232      1253.4833      753.27167      7960.7069      5343.6345      13304.341      172325.11      44.167843      44.167843      88.335685          16040 
     57000   3822.1169      105545.99      297.06392      106281.6       104635.52      105720.83      2336.2003      1402.5934     -1137.049       7924.0261      5365.7842      13289.81       171985.36      44.138797      44.138797      88.277594          16040 
     58000   3815.9857      103080.52      303.37829      103271.83      103918.92      102050.82     -350.22126     -1604.8787      3211.2901      7911.3147      5302.7464      13214.061      172171.19      44.154689      44.154689      88.309379          16040 
     59000   3808.1352      96538.582      309.69053      96465.376      98488.758      94661.612      775.64691      808.30092      401.67957      7895.0391      5247.9777      13143.017      172686.9       44.198731      44.198731      88.397462          16040 
     60000   3743.2843      97301.512      316.00361      97671.973      97590.728      96641.835      495.7157      -167.3954      -213.3929       7760.59        5277.5719      13038.162      172489.02      44.181842      44.181842      88.363684          16040 
     61000   3790.2641      98816.545      322.31262      99073.324      98884.547      98491.762     -370.76159     -968.31058     -562.40534      7857.9888      5298.9353      13156.924      172351.37      44.170086      44.170086      88.340172          16040 
     62000   3761.0857      95034.171      328.63141      95122.493      94718.94       95261.08      -1307.3209      247.30136      1720.6202      7797.4959      5326.9269      13124.423      172730         44.202408      44.202408      88.404815          16040 
     63000   3805.9876      98546.009      334.95358      98707.84       99922.441      97007.745      1317.4147     -91.681119     -509.70308      7890.5866      5299.7936      13190.38       172509.58      44.183598      44.183598      88.367195          16040 
     64000   3778.0437      100099.9       341.26895      99441.028      100794.99      100063.67     -71.124877      192.38308      2.8396617      7832.6532      5313.4421      13146.095      172346.81      44.169697      44.169697      88.339393          16040 
     65000   3797.5918      100944.02      347.58445      101244.29      101189.46      100398.33      602.08272     -331.74286     -1787.3692      7873.1804      5334.9545      13208.135      172303.85      44.166026      44.166026      88.332052          16040 
     66000   3828.2479      100949.73      353.89952      98407.534      102280.41      102161.25     -1285.7303      572.9911       1749.115       7936.7367      5257.4556      13194.192      172336.38      44.168806      44.168806      88.337611          16040 
     67000   3778.0012      96777.897      360.21296      95313.438      96906.94       98113.312      325.56232      1498.0537      727.20115      7832.5651      5272.8669      13105.432      172710.75      44.200765      44.200765      88.401531          16040 
     68000   3803.9995      94601.978      366.53128      93924.109      92643.48       97238.346     -1925.1142      169.2133       333.30805      7886.465       5146.3412      13032.806      172735.55      44.202881      44.202881      88.405762          16040 
     69000   3794.8141      98580.114      372.8544       96723.053      98539.141      100478.15     -418.79998      2661.6616      743.27428      7867.4217      5306.5332      13173.955      172478.54      44.180947      44.180947      88.361894          16040 
     70000   3837.008       101374.06      379.15542      102551.82      100955.83      100614.54     -549.73805     -1222.417      -1058.6772      7954.8982      5242.7149      13197.613      172304.21      44.166057      44.166057      88.332114          16040 
     71000   3800.0149      102741.83      385.44432      103935.21      101897.8       102392.48     -2786.1425     -693.95753      735.58858      7878.2041      5352.1049      13230.309      172185.7       44.155929      44.155929      88.311858          16040 
     72000   3764.4322      102569.14      391.73275      100631.21      102213.38      104862.83     -2750.414      -82.610476      89.954078      7804.4338      5403.496       13207.93       172158.11      44.153571      44.153571      88.307142          16040 
     73000   3844.0387      104199.99      398.02338      104138.57      103483.64      104977.77      4426.1933     -2073.0531     -71.954013      7969.4744      5305.9286      13275.403      171980.39      44.138372      44.138372      88.276745          16040 
     74000   3816.5962      105279.03      404.31348      104730.21      107115.64      103991.24     -453.92368     -2180.705      -1314.9057      7912.5804      5339.7023      13252.283      172005         44.140478      44.140478      88.280955          16040 
     75000   3823.7473      101452.39      410.60524      102106.5       101746.26      100504.42      1926.4068     -294.35137     -1550.5893      7927.4063      5165.4013      13092.808      172225.89      44.159364      44.159364      88.318728          16040 
     76000   3805.6576      95439.024      416.90372      93922.971      96865.165      95528.936     -1412.9852      1390.2387     -304.92715      7889.9026      5331.4083      13221.311      172809.85      44.209218      44.209218      88.418436          16040 
     77000   3792.7231      101106.61      423.21889      101438.86      100586.13      101294.85      2363.8571      335.54555      1598.6946      7863.0867      5256.955       13120.042      172363.15      44.171093      44.171093      88.342185          16040 
     78000   3826.3544      98998.131      429.53202      98744.144      100061.5       98188.744     -336.9335       314.64284      1389.211       7932.8111      5413.2733      13346.084      172557.55      44.187692      44.187692      88.375385          16040 
     79000   3783.3469      101135.57      435.84226      100848.26      99969.719      102588.74      339.95431     -756.48857     -602.28095      7843.648       5309.2007      13152.849      172362.51      44.171038      44.171038      88.342075          16040 
     80000   3756.4957      97185.428      442.15449      96471.36       98168.556      96916.369     -594.17852      2066.2461      3092.3897      7787.9798      5312.7652      13100.745      172667.88      44.197108      44.197108      88.394217          16040 
     81000   3802.3892      97042.937      448.47983      97707.44       96077.008      97344.364     -598.07372      817.75269     -3345.1441      7883.1265      5204.895       13088.022      172438.13      44.177496      44.177496      88.354993          16040 
     82000   3822.7973      100837.78      454.80028      100342.28      102022.7       100148.38      520.8119       1058.9849      579.93852      7925.4366      5315.1754      13240.612      172240.57      44.160619      44.160619      88.321238          16040 
     83000   3808.2458      104535.04      461.11612      104452.15      105245.02      103907.94      2075.1709      1051.3436     -1159.0812      7895.2683      5418.8883      13314.157      172062.74      44.145416      44.145416      88.290832          16040 
     84000   3844.6014      99763.317      467.42958      100429.95      99731.513      99128.483      1056.6029      1107.1747     -84.600677      7970.641       5279.2291      13249.87       172412.96      44.175347      44.175347      88.350694          16040 
     85000   3810.2987      99840.474      473.7423       100272.14      100630.03      98619.244      589.28067      1059.986       391.17154      7899.5244      5217.7973      13117.322      172338.83      44.169015      44.169015      88.338029          16040 
     86000   3759.9416      97084.683      480.05535      96738.153      97769.772      96746.124      2101.1557     -1721.2689     -2248.5278      7795.124       5335.2588      13130.383      172590.89      44.190539      44.190539      88.381077          16040 
     87000   3805.0683      95041.435      486.38227      94416.768      96161.784      94545.753      475.30779      383.95614      749.22281      7888.6809      5282.4262      13171.107      172798.74      44.20827       44.20827       88.41654           16040 
     88000   3792.1562      96124.32       492.70416      96412.021      97010.448      94950.489     -256.93097      878.39517     -432.5208       7861.9115      5264.6891      13126.601      172535.1       44.185776      44.185776      88.371552          16040 
     89000   3806.824       98167.241      499.02385      97589.334      99121.7        97790.691     -60.843259     -0.60273749     4.4923258      7892.3208      5466.4244      13358.745      172709.22      44.200635      44.200635      88.40127           16040 
     90000   3790.1364      101548.09      505.33907      101012.21      102937.54      100694.51      1591.9556     -1341.3871     -321.47918      7857.7239      5309.5294      13167.253      172219.02      44.158778      44.158778      88.317555          16040 
     91000   3839.2343      99962.264      511.65067      100655.66      99624.3        99606.836      231.94553      1800.0506      641.55688      7959.5138      5349.3733      13308.887      172521.39      44.184606      44.184606      88.369211          16040 
     92000   3814.1707      104342.48      517.96184      104452.88      105779.49      102795.07      232.11336      939.51088     -2851.4468      7907.552       5292.7832      13200.335      171943.19      44.13519       44.13519       88.270379          16040 
     93000   3841.4647      101467.37      524.28939      103826.07      100155.76      100420.29     -2753.9968      1422.3038      2902.238       7964.138       5295.6472      13259.785      172301.39      44.165816      44.165816      88.331632          16040 
     94000   3809.3372      100196.86      530.60919      101157.12      99711.853      99721.618      204.35651     -713.39962     -266.02007      7897.5311      5332.7052      13230.236      172260.85      44.162352      44.162352      88.324705          16040 
     95000   3825.5012      99185.811      536.93095      98329.359      99129.256      100098.82     -2147.5457     -1849.9393      1112.3837      7931.0423      5329.1955      13260.238      172462.27      44.179558      44.179558      88.359116          16040 
     96000   3758.2451      98251.502      543.24673      100714.94      96219.646      97819.92       1165.1509     -707.83434      246.61767      7791.6067      5298.0799      13089.687      172500.52      44.182824      44.182824      88.365648          16040 
     97000   3829.2867      101327.46      549.56696      101786.99      101270.55      100924.83     -1262.8636     -1175.0218      2125.7159      7938.8905      5200.2278      13139.118      172039.33      44.143414      44.143414      88.286827          16040 
     98000   3811.7768      102573.52      555.87898      101374.62      102036.48      104309.46      2041.0412      327.51967     -2535.7628      7902.5889      5337.2363      13239.825      172124.01      44.150655      44.150655      88.301311          16040 
     99000   3783.1188      102403.14      562.20325      102295.09      104609.82      100304.51     -543.09842     -745.50607      1314.3314      7843.1749      5395.9479      13239.123      172308         44.166381      44.166381      88.332761          16040 
    100000   3817.652       98277.187      568.5299       98988.243      97588.816      98254.502      1174.0077      95.828746     -537.22433      7914.7694      5332.1198      13246.889      172501.63      44.182919      44.182919      88.365838          16040 
    101000   3786.9568      98056.891      574.84662      97591.161      98936.856      97642.656     -1787.4842     -896.71671     -742.12886      7851.1319      5266.8122      13117.944      172371.4       44.171797      44.171797      88.343594          16040 
    102000   3770.9084      93356.882      581.1604       93205.495      93935.732      92929.418     -1011.7379     -386.61143      1138.9584      7817.8604      5330.8542      13148.715      172841.3       44.2119        44.2119        88.4238            16040 
    103000   3804.4026      98626.495      587.47559      97436.011      99450.842      98992.632     -512.36443     -3244.9566     -519.97788      7887.3007      5200.8118      13088.112      172376.5       44.172233      44.172233      88.344467          16040 
    104000   3820.1031      101067.76      593.7851       100900.36      101340.52      100962.41      1567.8438      2246.7385     -387.65459      7919.8509      5304.6776      13224.528      172319.65      44.167377      44.167377      88.334753          16040 
    105000   3824.971       100872.31      600.10907      100312.93      100929.86      101374.14      406.0114       814.10394      64.597278      7929.9432      5225.7197      13155.663      172203.05      44.157412      44.157412      88.314824          16040 
    106000   3800.0049      98235.208      606.43251      100184.31      97312.836      97208.475      931.2885       279.32726     -1539.2184      7878.1833      5362.64        13240.823      172476.97      44.180813      44.180813      88.361626          16040 
    107000   3777.7958      97209.175      612.75309      96506.913      97369.889      97750.723      2843.8868     -672.7709      -1829.0033      7832.1393      5252.4805      13084.62       172588.5       44.190335      44.190335      88.380669          16040 
    108000   3762.9398      98998.067      619.07105      98584.458      100071.61      98338.136      2823.4835     -556.49263     -1273.5773      7801.3399      5247.19        13048.53       172418.07      44.175784      44.175784      88.351568          16040 
    109000   3821.0052      99867.841      625.38748      101169.38      99565.199      98868.948     -561.76753     -2013.1519     -936.81975      7921.7211      5285.2625      13206.984      172329.51      44.168219      44.168219      88.336438          16040 
    110000   3781.6051      103308.88      631.7011       105072.81      102016.97      102836.87      1113.612       190.5979      -1064.2768      7840.0367      5220.4194      13060.456      171948.52      44.135645      44.135645      88.27129           16040 
    111000   3795.5663      98296.882      638.02146      95885.844      99234.717      99770.085     -261.64007     -921.32449     -1636.0577      7868.9811      5342.5804      13211.561      172497.56      44.182571      44.182571      88.365142          16040 
    112000   3762.0194      98928.596      644.34773      99103.126      99408.788      98273.873      704.12625      1012.1107     -3044.7507      7799.4316      5240.4608      13039.892      172270.01      44.163135      44.163135      88.32627           16040 
    113000   3782.3613      98175.813      650.66718      98770.613      96922.723      98834.103     -2051.1892      820.33956      514.81346      7841.6046      5317.3628      13158.967      172508.79      44.18353       44.18353       88.36706           16040 
    114000   3837.9104      101866.36      656.98497      103779.76      101502.45      100316.88      2172.0464      3.7018376      860.42502      7956.7691      5266.5252      13223.294      172227.58      44.159509      44.159509      88.319018          16040 
    115000   3850.1436      106571.24      663.29939      107520.96      105255.2       106937.57     -1007.6964      596.39962      202.94113      7982.131       5428.9009      13411.032      171961.73      44.136776      44.136776      88.273551          16040 
    116000   3834.0627      102720.9       669.61436      101981.91      102149.19      104031.6      -631.1417      -642.77561     -2564.7623      7948.7921      5291.106       13239.898      172174.75      44.154993      44.154993      88.309986          16040 
    117000   3832.1569      100445.59      675.93435      101338.96      97630.009      102367.79      7.7509547     -559.08457     -2657.6411      7944.8409      5375.2717      13320.113      172438.83      44.177557      44.177557      88.355113          16040 
    118000   3770.3746      99667.261      682.25995      98891.659      100659.77      99450.349      2168.7372     -797.38166      821.68951      7816.7537      5366.0395      13182.793      172430.48      44.176844      44.176844      88.353687          16040 
    119000   3843.276       99720.841      688.58118      100736.99      99070.354      99355.183     -289.54845      708.72323     -747.15316      7967.8931      5348.0441      13315.937      172501.62      44.182918      44.182918      88.365837          16040 
    120000   3785.6397      102793.1       694.8905       101893.51      103526.88      102958.92     -1305.9468     -1035.5186      317.6555       7848.4013      5297.6919      13146.093      172170.67      44.154645      44.154645      88.309289          16040 
    121000   3795.7737      98290.327      701.19801      99309.938      97171.328      98389.715     -827.46876     -510.85179      1024.0602      7869.4111      5221.0026      13090.414      172482.21      44.181261      44.181261      88.362521          16040 
    122000   3795.2736      96308.169      707.5017       98236.212      94357.117      96331.177      2929.003       594.1597       1351.9994      7868.3743      5330.5085      13198.883      172619.04      44.19294       44.19294       88.385881          16040 
    123000   3719.9324      97340.868      713.80807      96187.969      96539.314      99295.32      -1402.6257      127.54897     -95.687949      7712.1767      5296.7205      13008.897      172540.97      44.186277      44.186277      88.372554          16040 
    124000   3799.9325      95227.183      720.12893      94812.534      95648.348      95220.669     -1429.2269     -468.38887     -908.16682      7878.0333      5339.5512      13217.584      172786.41      44.207219      44.207219      88.414438          16040 
    125000   3770.7781      101537.22      726.44026      101476.62      102373.86      100761.19     -88.724962      608.64977     -1232.5121      7817.5903      5326.3765      13143.967      172238.27      44.160422      44.160422      88.320845          16040 
    126000   3802.9274      101587.17      732.75303      102140.91      101552.75      101067.84     -492.98759      2020.0379     -187.35835      7884.2423      5287.2855      13171.528      172142.21      44.152211      44.152211      88.304423          16040 
    127000   3864.636       103782.58      739.06209      102707.75      104037.82      104602.17     -21.202356      2543.0401     -1169.0551      8012.1767      5317.1895      13329.366      172046.47      44.144025      44.144025      88.28805           16040 
    128000   3793.2603      105756.97      745.36706      106704.55      104116.73      106449.63      88.383098     -1049.3497     -1158.5237      7864.2004      5296.4267      13160.627      171938.19      44.134762      44.134762      88.269523          16040 
    129000   3840.1295      99818.062      751.67449      98597.58       99379.98       101476.63      403.35866      1239.4711      878.89524      7961.3698      5213.3249      13174.695      172349.46      44.169923      44.169923      88.339847          16040 
    130000   3791.8438      99193.964      757.98267      99135.621      98955.794      99490.476     -372.62949     -655.13333     -135.47561      7861.2638      5437.9857      13299.249      172561.82      44.188057      44.188057      88.376114          16040 
    131000   3848.5774      100283.08      764.29029      100181.68      100578.21      100089.36      304.20837     -705.1441       1293.883       7978.8841      5199.3979      13178.282      172261.65      44.162421      44.162421      88.324841          16040 
    132000   3813.2415      99212.882      770.60071      101598.14      99599.957      96440.544      598.97942      1772.0022     -704.76936      7905.6255      5318.8714      13224.497      172471.9       44.18038       44.18038       88.360761          16040 
    133000   3762.2238      93079.859      776.91468      93010.418      93617.204      92611.954      702.44465      2233.1341     -122.44687      7799.8555      5226.7269      13026.582      172842.33      44.211987      44.211987      88.423975          16040 
    134000   3813.3673      97807.938      783.22671      98350.16       97758.284      97315.37      -911.91604     -1044.7262      1585.0617      7905.8863      5237.1842      13143.071      172550.08      44.187055      44.187055      88.374109          16040 
    135000   3772.6191      100593.54      789.53649      101324.42      100584.12      99872.091     -1313.5066      153.46006      1345.6435      7821.407       5296.3868      13117.794      172292.33      44.165042      44.165042      88.330085          16040 
    136000   3816.2993      100252         795.86172      100307.91      101852.39      98595.701      1984.7204      178.37119      807.45661      7911.9649      5339.6608      13251.626      172368.12      44.171517      44.171517      88.343034          16040 
    137000   3810.1471      100670.58      802.17538      101413.81      98749.206      101848.74      2278.4215     -1178.7279      2114.7736      7899.2102      5297.4472      13196.657      172308.45      44.16642       44.16642       88.332839          16040 
    138000   3779.7599      99011.658      808.48779      99687.381      97733.957      99613.636      52.146308     -1811.0378     -396.20594      7836.2113      5292.6326      13128.844      172422.98      44.176203      44.176203      88.352407          16040 
    139000   3818.483       95085.286      814.80201      94881.773      95622.255      94751.828      375.77603     -646.1067      -2040.3815      7916.4922      5184.9834      13101.476      172712.39      44.200905      44.200905      88.40181           16040 
    140000   3829.5455      97140.947      821.11328      96983.373      97169.045      97270.424     -227.96861      1478.4585     -697.57863      7939.4271      5221.4067      13160.834      172577.32      44.18938       44.18938       88.37876           16040 
    141000   3795.8276      98195.011      827.42598      99206.661      97313.249      98065.123      525.29318     -993.19273     -1332.7774      7869.523       5137.5582      13007.081      172399.33      44.174183      44.174183      88.348365          16040 
    142000   3821.8678      99720.711      833.75405      99340.191      100270.41      99551.527      32.408082     -497.24762     -8.2937795      7923.5096      5285.1419      13208.652      172436.77      44.177381      44.177381      88.354762          16040 
    143000   3804.9094      104408.93      840.07568      103698.1       105107.05      104421.64      1797.3425      263.62939     -890.0139       7888.3513      5278.9529      13167.304      171960.99      44.136713      44.136713      88.273425          16040 
    144000   3787.3965      102421.58      846.39355      103845.13      101938.2       101481.41     -630.00029     -163.15225     -976.80937      7852.0435      5335.471       13187.515      172151.03      44.152965      44.152965      88.30593           16040 
    145000   3803.806       96513.154      852.7179       95727.8        96937.8        96873.862      250.10538     -457.50446     -1672.7058      7886.0639      5316.3583      13202.422      172605.75      44.191807      44.191807      88.383613          16040 
    146000   3735.8344      99304.369      859.04613      98856.533      99034.188      100022.39     -1126.9125      1957.0246      826.64796      7745.1449      5231.7441      12976.889      172395.07      44.173819      44.173819      88.347638          16040 
    147000   3794.7911      101959.88      865.36668      100856.99      102253.38      102769.26     -590.02048      793.66603      1447.5642      7867.374       5265.1082      13132.482      172276.1       44.163655      44.163655      88.32731           16040 
    148000   3823.4616      99606.467      871.69459      98156.966      101392.91      99269.52       229.54082      2629.7576      1068.339       7926.8139      5288.8816      13215.695      172408.23      44.174943      44.174943      88.349886          16040 
    149000   3827.7692      102957.25      878.02265      103520.17      104301.7       101049.89      1223.1861     -343.37596      1386.0243      7935.7444      5134.3242      13070.069      171993.82      44.139521      44.139521      88.279043          16040 
    150000   3793.6618      97191.736      884.33948      95458.28       97587.85       98529.079     -1014.6126     -1647.6558     -791.30375      7865.0327      5354.9027      13219.935      172488.61      44.181807      44.181807      88.363614          16040 
    151000   3801.2415      101579.15      890.66773      100323.42      101162.09      103251.95     -582.48654      2622.7712     -1040.1341      7880.747       5257.7063      13138.453      172273.95      44.163472      44.163472      88.326944          16040 
    152000   3820.8         100522.98      896.99326      100255.37      100737.02      100576.56      946.51193      510.85124     -1740.7515      7921.2957      5254.0429      13175.339      172199.89      44.157142      44.157142      88.314284          16040 
    153000   3811.2844      101037.89      903.31157      101675.1       100513.27      100925.29     -1522.6649     -1741.4802      976.81734      7901.5681      5267.1018      13168.67       172207.29      44.157774      44.157774      88.315549          16040 
    154000   3828.3667      99200.099      909.63771      98219.432      99967.532      99413.333     -872.52308      751.0889       1727.7918      7936.983       5160.7068      13097.69       172210.99      44.158091      44.158091      88.316182          16040 
    155000   3806.729       98327.102      915.96638      98021.583      96936.351      100023.37      1535.3165     -426.0252       568.55721      7892.1237      5295.9044      13188.028      172523.25      44.184764      44.184764      88.369528          16040 
    156000   3827.9465      99259.233      922.28623      100134.26      99693.702      97949.74       861.60499      161.70721     -1824.2467      7936.112       5170.4725      13106.584      172200.62      44.157205      44.157205      88.314409          16040 
    157000   3826.4353      97089.822      928.61356      97083.276      97443.534      96742.656     -605.40434     -841.44572      251.35121      7932.979       5327.0913      13260.07       172649.66      44.195553      44.195553      88.391107          16040 
    158000   3785.3798      98237.91       934.9383       99547.813      96910.111      98255.807     -426.64619     -6.0474408     -2675.3579      7847.8626      5334.512       13182.375      172479.18      44.181002      44.181002      88.362004          16040 
    159000   3738.0872      102639.79      941.26176      102215.13      102983.35      102720.88     -1060.1354     -528.63631      2670.2679      7749.8154      5317.0866      13066.902      172037.18      44.14323       44.14323       88.28646           16040 
    160000   3798.7741      101985.45      947.58355      103147.78      102051.22      100757.34     -705.84727     -2914.8431      715.99879      7875.6317      5392.8081      13268.44       172294.35      44.165214      44.165214      88.330429          16040 
    161000   3867.7545      97197.333      953.91044      95809.267      98092.44       97690.292      219.96022     -1548.4087      801.44077      8018.642       5235.088       13253.73       172550.99      44.187133      44.187133      88.374265          16040 
    162000   3784.1296      96602.615      960.22912      96604.652      95868.904      97334.289      1165.5253      169.93445     -1719.0866      7845.2706      5308.3029      13153.574      172576.62      44.189321      44.189321      88.378641          16040 
    163000   3780.1382      99018.729      966.55345      100192.09      98763.241      98100.856      913.65467      1119.2641      1315.4887      7836.9955      5171.2155      13008.211      172241.58      44.160705      44.160705      88.321411          16040 
    164000   3790.5511      100534.03      972.8814       99348.125      102270.93      99983.037     -1539.6752      791.43233     -1141.2581      7858.5837      5363.1208      13221.704      172339.9       44.169107      44.169107      88.338213          16040 
    165000   3760.6558      104763.5       979.20218      104440.4       105694.8       104155.3      -357.89292      822.57547     -603.82739      7796.6047      5323.9907      13120.595      171983.1       44.138604      44.138604      88.277209          16040 
    166000   3838.4573      102212.09      985.5248       103075.56      100977.85      102582.87      1014.6951      421.02747     -528.76672      7957.903       5258.5062      13216.409      172200.1       44.15716       44.15716       88.31432           16040 
    167000   3797.4309      103472.54      991.85343      103994.82      102695.96      103726.83      2165.7222      64.961837     -264.83285      7872.8468      5251.3172      13124.164      171926.02      44.133721      44.133721      88.267441          16040 
    168000   3816.7463      99727.019      998.1796       98472.447      99254.49       101454.12      1444.077       1947.4292     -1163.0652      7912.8917      5303.8237      13216.715      172342.51      44.169329      44.169329      88.338658          16040 
    169000   3843.5356      99483.114      1004.5006      99647.638      99708.342      99093.362      822.87866     -538.3519      -2229.6762      7968.4313      5297.1674      13265.599      172422         44.176119      44.176119      88.352239          16040 
    170000   3776.7628      101582.61      1010.8307      101608.23      102593.92      100545.67     -49.447328      3196.9171      675.3658       7829.9978      5290.2404      13120.238      172157.09      44.153483      44.153483      88.306967          16040 
    171000   3753.2377      97435.448      1017.1552      95450.317      98084.158      98771.87      -681.7873      -924.49414     -1120.2333      7781.2253      5280.2987      13061.524      172539.2       44.186127      44.186127      88.372253          16040 
    172000   3819.7064      96175.135      1023.4767      95648.412      95626.025      97250.969      772.07113     -514.63102      784.11997      7919.0285      5364.0482      13283.077      172814.57      44.20962       44.20962       88.419241          16040 
    173000   3811.2918      102578.17      1029.8075      102669.62      104186.38      100878.49      949.99526     -60.91316      -1965.051       7901.5835      5262.4619      13164.045      172105.26      44.149052      44.149052      88.298103          16040 
    174000   3821.4327      105776.91      1036.1312      107699.62      105551.66      104079.45     -3492.0198     -115.06192      2800.0819      7922.6076      5413.3388      13335.946      171944.56      44.135307      44.135307      88.270614          16040 
    175000   3804.933       101442.64      1042.4523      102085.74      99964.42       102277.76     -716.80749     -2439.4716     -528.13708      7888.4002      5274.4171      13162.817      172257.04      44.162027      44.162027      88.324054          16040 
    176000   3781.8046      101813.29      1048.784       103281.79      102466.27      99691.808      448.48541      105.47085     -487.98365      7840.4503      5166.6302      13007.081      172069.18      44.145967      44.145967      88.291933          16040 
    177000   3803.8934      100263.45      1055.107       99347.473      102488.16      98954.707     -162.87458     -1872.4972      279.71329      7886.245       5271.8644      13158.109      172358.8       44.170721      44.170721      88.341442          16040 
    178000   3791.0278      96861.508      1061.4278      96348.499      98098.899      96137.125      2350.6922      1434.0211      958.15689      7859.5719      5317.6889      13177.261      172786.57      44.207233      44.207233      88.414466          16040 
    179000   3800.748       100282.91      1067.7584      100556.62      99327.508      100964.59      1002.2272      480.29381     -759.55981      7879.7239      5175.0053      13054.729      172250.66      44.161481      44.161481      88.322963          16040 
    180000   3803.3885      102994.21      1074.086       101416.52      103499.02      104067.1      -747.81618     -756.15004     -1380.0934      7885.1983      5286.8513      13172.05       172083.94      44.147229      44.147229      88.294458          16040 
    181000   3806.5298      105216.91      1080.4041      105057.34      105120.99      105472.38      2317.0394      179.96248     -424.87818      7891.7107      5306.6432      13198.354      171943.95      44.135255      44.135255      88.270509          16040 
    182000   3791.3948      101304.75      1086.7353      100539.34      102743.21      100631.68     -1210.8191     -1602.4091      584.24704      7860.3329      5223.8327      13084.166      172094.19      44.148105      44.148105      88.296211          16040 
    183000   3806.0556      95622.343      1093.0587      95747.8        95993.57       95125.659     -767.20679      920.92718     -1465.4811      7890.7276      5314.0912      13204.819      172654.59      44.195974      44.195974      88.391949          16040 
    184000   3790.1439      99487.421      1099.3798      99389.303      99203.204      99869.756      825.04189      1260.904      -501.13669      7857.7394      5141.3103      12999.05       172324.55      44.167795      44.167795      88.335589          16040 
    185000   3764.3016      98367.509      1105.7075      98466.272      98243.603      98392.651     -1294.5683     -1159.9808     -1713.7426      7804.1631      5313.8866      13118.05       172498.9       44.182685      44.182685      88.365371          16040 
    186000   3867.4231      95406.279      1112.0328      95090.418      96086.593      95041.827     -1240.6812     -1245.9523      99.062303      8017.9551      5193.996       13211.951      172740.81      44.20333       44.20333       88.40666           16040 
    187000   3804.7463      100948.62      1118.3516      101059.33      100975.61      100810.92      50.362304     -2598.1977     -1126.5479      7888.0132      5233.6342      13121.647      172192.04      44.156471      44.156471      88.312942          16040 
    188000   3811.0678      101341.09      1124.6799      100812.1       101897.08      101314.08      203.59172      200.39825     -16.203714      7901.1189      5282.7182      13183.837      172283.16      44.164259      44.164259      88.328518          16040 
    189000   3740.4182      100779.03      1131.0095      100940.46      100478.1       100918.53     -1700.6369      666.44411     -943.97166      7754.648       5320.5809      13075.229      172110.59      44.149507      44.149507      88.299015          16040 
    190000   3736.5414      101570.94      1137.3341      103161         100941.93      100609.88     -3203.2831     -515.71185     -607.39272      7746.6107      5258.5662      13005.177      172143.91      44.152357      44.152357      88.304713          16040 
    191000   3807.8364      97003.967      1143.6608      97215.623      96048.119      97748.158      757.88206     -1622.1367     -3280.1288      7894.4196      5282.5016      13176.921      172627.8       44.193688      44.193688      88.387377          16040 
    192000   3781.9954      100527.53      1149.9893      100571.01      99925.817      101085.77      736.24558      308.28546     -244.43254      7840.8459      5329.9287      13170.775      172269.71      44.163109      44.163109      88.326219          16040 
    193000   3764.996       102217.8       1156.311       103662.92      102423.47      100567.02     -2821.0007      2236.0397     -659.13471      7805.6028      5209.8876      13015.49       172087.56      44.147539      44.147539      88.295078          16040 
    194000   3797.5983      98464.814      1162.64        98232.4        98203.915      98958.128      441.42149     -128.97905      219.04748      7873.1939      5302.0404      13175.234      172452.05      44.178686      44.178686      88.357371          16040 
    195000   3795.9464      100663.88      1168.967       100189.47      101769.16      100033.02     -44.439809      2315.1648     -26.496142      7869.7691      5208.2366      13078.006      172237.78      44.160381      44.160381      88.320762          16040 
    196000   3803.7881      99774.961      1175.2897      99849.505      99639.084      99836.295      164.50693     -2562.5865     -1807.9908      7886.0266      5212.4445      13098.471      172332.11      44.168441      44.168441      88.336881          16040 
    197000   3830.7427      97803.201      1181.617       95750.049      98594.54       99065.013     -1213.9017      2080.1654     -419.64836      7941.909       5243.2847      13185.194      172597.67      44.191117      44.191117      88.382234          16040 
    198000   3818.7822      98889.835      1187.946       99154.423      99366.531      98148.551     -557.10323      494.43729      280.21082      7917.1125      5269.4216      13186.534      172413.24      44.175371      44.175371      88.350742          16040 
    199000   3856.2078      103495.29      1194.268       103099.46      102108.48      105277.91      422.42442     -1887.8028     -1676.31        7994.7033      5208.474       13203.177      171941.05      44.135007      44.135007      88.270013          16040 
    200000   3789.2442      101948.07      1200.6027      102586.57      101057.3       102200.36     -250.62958      731.31661     -340.80286      7855.8741      5365.732       13221.606      172248.22      44.161273      44.161273      88.322546          16040 
    201000   3767.3346      101223.99      1206.936       102374.24      99266.286      102031.46     -1887.9387      133.39404      149.97219      7810.4511      5248.1773      13058.628      172162.65      44.153959      44.153959      88.307918          16040 
    202000   3826.9554      97216.25       1213.2569      96831.881      96261.434      98555.434     -815.29164     -2656.4518      2094.9959      7934.0572      5316.9305      13250.988      172604.43      44.191693      44.191693      88.383387          16040 
    203000   3781.2012      97435.31       1219.5769      96676.978      98177.942      97451.011     -1756.1526      840.2445      -1289.3228      7839.1995      5227.5672      13066.767      172443.53      44.177958      44.177958      88.355916          16040 
    204000   3735.4234      104185.3       1225.9033      104184.22      103722.58      104649.1       105.13088     -615.92882      1301.1054      7744.2928      5333.0338      13077.327      171950.77      44.135838      44.135838      88.271675          16040 
    205000   3822.3381      101410.61      1232.2228      103031.83      99240.812      101959.2      -697.7735       80.666583      990.43956      7924.4845      5309.5119      13233.996      172206.1       44.157673      44.157673      88.315345          16040 
    206000   3787.8352      98808.249      1238.5454      98570.579      98961.139      98893.028      1592.4405      582.00759      603.96017      7852.9531      5215.4569      13068.41       172289.67      44.164815      44.164815      88.329629          16040 
    207000   3754.041       101300.94      1244.8716      100045.99      101807.8       102049.02     -1567.291      -764.0332      -956.00649      7782.8908      5239.8442      13022.735      172092.56      44.147966      44.147966      88.295931          16040 
    208000   3815.5039      97663.387      1251.19        98689.195      97842.818      96458.148      1550.4993     -2428.9911     -2705.2928      7910.316       5278.672       13188.988      172533.09      44.185604      44.185604      88.371208          16040 
    209000   3790.8157      102343.01      1257.5106      102308.77      102351.85      102368.42     -1524.1976     -23.738645     -274.17917      7859.1323      5247.4429      13106.575      171993.74      44.139514      44.139514      88.279029          16040 
    210000   3801.9114      101151.1       1263.8372      101884.31      101399.47      100169.52     -1227.593       1114.1203      463.83017      7882.136       5385.0292      13267.165      172299.54      44.165659      44.165659      88.331317          16040 
    211000   3798.3639      100463.21      1270.1582      99846.835      99992.184      101550.61     -2227.4816      2294.6834      2355.3182      7874.7812      5200.0593      13074.841      172123         44.150569      44.150569      88.301138          16040 
    212000   3780.8619      100067.64      1276.4788      101121.48      98777.247      100304.19      35.629698      696.07609      1171.0953      7838.496       5275.1005      13113.596      172361.04      44.170912      44.170912      88.341824          16040 
    213000   3803.9136      103555.5       1282.8062      102571.61      104888.58      103206.31      1434.4972     -54.724138     -1395.0163      7886.2868      5185.5941      13071.881      171971.19      44.137585      44.137585      88.275169          16040 
    214000   3867.6637      101851.73      1289.1276      101695.02      100625.25      103234.92      751.86262     -2736.2632      1200.5055      8018.4538      5259.4948      13277.949      172157.08      44.153482      44.153482      88.306964          16040 
    215000   3790.3379      99025.036      1295.4454      99181.577      99367.595      98525.936      357.19682     -413.73735      1092.3863      7858.1417      5248.3436      13106.485      172304.29      44.166064      44.166064      88.332129          16040 
    216000   3801.7852      93550.832      1301.7744      93950.156      94082.18       92620.16      -2278.4775     -642.4555      -1613.8915      7881.8743      5229.0207      13110.895      172811.17      44.209331      44.209331      88.418662          16040 
    217000   3805.6062      98778.494      1308.0994      99016.277      98825.247      98493.958      1373.5976      567.72264      392.27878      7889.7959      5253.4386      13143.235      172356.23      44.170501      44.170501      88.341003          16040 
    218000   3786.8227      100910.07      1314.4185      102714.52      102130.05      97885.634      2412.5688     -1097.3725      46.915954      7850.8539      5251.5685      13102.422      172220.72      44.158923      44.158923      88.317845          16040 
    219000   3776.2419      98029.761      1320.745       97881.386      96904.905      99302.991     -791.93825      251.17948      325.09766      7828.9177      5285.6933      13114.611      172378.28      44.172385      44.172385      88.344771          16040 
    220000   3768.7173      102258.78      1327.0621      100412.43      102137.94      104225.96      1396.4457      79.341442      140.01322      7813.3178      5297.0137      13110.332      172058.21      44.145029      44.145029      88.290058          16040 
    221000   3847.1198      102459.1       1333.3761      103203.22      103316.39      100857.68      458.97218      898.07949      1069.4778      7975.8621      5273.1334      13248.995      172218.84      44.158762      44.158762      88.317525          16040 
    222000   3787.4856      99495.641      1339.6939      98394.527      101404.21      98688.191      139.41049     -1198.6439      1189.3188      7852.2282      5314.282       13166.51       172372.99      44.171933      44.171933      88.343866          16040 
    223000   3776.7837      100025.97      1346.0127      100479.12      99055.562      100543.24      721.74956     -1178.2718     -2010.9707      7830.041       5209.488       13039.529      172282.85      44.164232      44.164232      88.328464          16040 
    224000   3803.077       97803.196      1352.3226      99979.963      97610.367      95819.258      250.30739     -1050.0489      128.10573      7884.5524      5291.1784      13175.731      172546.24      44.186727      44.186727      88.373454          16040 
    225000   3756.2206      96803.641      1358.6451      96970.141      97026.24       96414.543      1126.9896     -2663.8905     -188.94241      7787.4096      5260.1595      13047.569      172501.15      44.182878      44.182878      88.365755          16040 
    226000   3825.8449      97535.408      1364.9597      96935.796      97232.803      98437.624      350.56305     -1309.1759      1085.6209      7931.7548      5269.8256      13201.58       172518.12      44.184327      44.184327      88.368654          16040 
    227000   3803.8419      100770.25      1371.2735      100425.52      100632.66      101252.56      193.5487      -274.5899      -634.79903      7886.1382      5252.8399      13138.978      172253.68      44.16174       44.16174       88.32348           16040 
    228000   3788.392       104074         1377.5844      102002.37      105029.49      105190.14      395.74489      88.889285     -1067.612       7854.1074      5281.262       13135.369      172096.56      44.148308      44.148308      88.296617          16040 
    229000   3827.4643      100758.7       1383.8901      101378.37      100708.67      100189.07      1955.8272      1416.6987     -543.24617      7935.1122      5353.8299      13288.942      172417.92      44.175771      44.175771      88.351542          16040 
    230000   3798.3424      101535.79      1390.1976      103293.74      97951.08       103362.57     -1895.9815      1905.8546      513.26169      7874.7366      5319.8873      13194.624      172270.93      44.163214      44.163214      88.326428          16040 
    231000   3773.3333      99697.661      1396.5033      98714.17       100407.74      99971.078     -2264.2866     -1633.5481     -303.00792      7822.8876      5252.2836      13075.171      172313.84      44.16688       44.16688       88.33376           16040 
    232000   3805.7107      99777.757      1402.8112      98668.206      100281.03      100384.03     -115.9477      -341.04565      997.18414      7890.0126      5241.0537      13131.066      172335.2       44.168705      44.168705      88.33741           16040 
    233000   3816.5622      101200.84      1409.1182      100770.28      101432.46      101399.77     -1033.6172     -795.23689     -474.31889      7912.5099      5257.4595      13169.969      172080.63      44.146946      44.146946      88.293892          16040 
    234000   3787.414       97689.559      1415.4247      96926.91       97778.348      98363.42       2640.9352      9.2469302     -2679.5394      7852.0798      5317.1673      13169.247      172548.4       44.186911      44.186911      88.373823          16040 
    235000   3778.4258      99713.901      1421.7344      98661.846      100124.54      100355.31      598.00536     -176.56035      2265.9991      7833.4455      5231.957       13065.402      172338.03      44.168946      44.168946      88.337893          16040 
    236000   3805.9037      99226.933      1428.0428      97635.69       100563.71      99481.396     -817.41408      1177.3014     -227.5893       7890.4127      5279.6938      13170.107      172376.8       44.172259      44.172259      88.344517          16040 
    237000   3810.9715      101902.08      1434.3491      102297.36      100807.21      102601.65      1433.6456     -672.57334      26.78508       7900.9192      5440.5475      13341.467      172273.56      44.163438      44.163438      88.326876          16040 
    238000   3830.3873      103701.46      1440.6564      105954.72      103518.99      101630.67     -259.80107     -1192.4409      190.28818      7941.1723      5259.5735      13200.746      172006.27      44.140586      44.140586      88.281173          16040 
    239000   3795.6824      101967.86      1446.9639      101975.25      101882.96      102045.36      144.00679     -1076.3401      2749.9238      7869.2219      5327.6426      13196.865      172180.98      44.155526      44.155526      88.311051          16040 
    240000   3797.807       100900.11      1453.2723      102910.56      99938.256      99851.503      1161.3104     -632.63917     -397.92794      7873.6266      5229.5749      13103.201      172229.35      44.159661      44.159661      88.319321          16040 
    241000   3812.8508      98048.878      1459.5819      99169.046      99891.615      95085.973     -1733.7423     -1735.7295      1821.246       7904.8156      5197.5953      13102.411      172504.54      44.183168      44.183168      88.366335          16040 
    242000   3823.9689      99946.496      1465.8908      98968.594      100609.7       100261.19     -567.45814     -2274.9111      286.72796      7927.8655      5400.2816      13328.147      172416.12      44.175617      44.175617      88.351233          16040 
    243000   3846.5594      99054.564      1472.2027      100856.04      99041.194      97266.461      615.76188      2786.0492     -148.99346      7974.7002      5181.2959      13155.996      172388.99      44.1733        44.1733        88.3466            16040 
    244000   3796.0572      101722.82      1478.5184      101484.43      101568.38      102115.64     -346.76445     -2392.7101     -1211.5465      7869.9989      5238.975       13108.974      172134.31      44.151536      44.151536      88.303072          16040 
    245000   3849.333       101732.85      1484.8276      101639.51      101907.52      101651.53     -49.138064      1184.105      -1630.502       7980.4505      5323.8306      13304.281      172222.11      44.159041      44.159041      88.318082          16040 
    246000   3798.8795      107912.64      1491.1355      106882.98      108930.63      107924.31      814.43953     -0.82261785     1225.8087      7875.8502      5264.8143      13140.665      171720.77      44.116151      44.116151      88.232302          16040 
    247000   3839.6307      101480.47      1497.4573      101871.26      100118.94      102451.2      -262.46879     -1507.4102     -2271.0849      7960.3356      5152.1618      13112.497      172175.77      44.155081      44.155081      88.310161          16040 
    248000   3788.2542      102423.71      1503.7774      103569.01      101365.16      102336.94      1660.4333      687.94988     -150.04612      7853.8216      5392.5794      13246.401      172358.83      44.170724      44.170724      88.341448          16040 
    249000   3824.7199      103011.04      1510.0895      103836.29      102661.28      102535.55      1898.5832     -4135.161      -1553.238       7929.4225      5297.3774      13226.8        172143.18      44.152294      44.152294      88.304588          16040 
    250000   3817.4326      100650.84      1516.4007      100730.81      99653.029      101568.66     -737.07228     -668.59832      1825.6806      7914.3145      5314.2298      13228.544      172197.06      44.1569        44.1569        88.313801          16040 
    251000   3764.7178      97630.54       1522.7137      98905.724      97002.675      96983.219      727.58069      673.36326     -2027.529       7805.0261      5181.4716      12986.498      172339.1       44.169038      44.169038      88.338076          16040 
    252000   3791.7525      96147.054      1529.0247      96930.646      97446.307      94064.21      -386.28768     -1848.6257     -917.27988      7861.0744      5217.2733      13078.348      172647.1       44.195335      44.195335      88.390671          16040 
    253000   3816.6873      98837.365      1535.348       98713.139      98360.094      99438.862      1425.7465     -1896.909      -357.86254      7912.7694      5291.1904      13203.96       172472.42      44.180425      44.180425      88.360849          16040 
    254000   3792.1723      100233.44      1541.6684      100957.28      99113.882      100629.15      488.87323      2063.7432      1773.2985      7861.9448      5227.6821      13089.627      172203.19      44.157424      44.157424      88.314849          16040 
    255000   3812.4767      99272.894      1547.9855      99534.481      100407.26      97876.941     -4078.7976     -1201.1002     -752.43295      7904.0398      5366.4689      13270.509      172426.06      44.176466      44.176466      88.352931          16040 
    256000   3792.985       100282.64      1554.2973      99097.169      98860.805      102889.95      951.38601      1699.8605     -645.84778      7863.6297      5280.4218      13144.052      172350.98      44.170053      44.170053      88.340106          16040 
    257000   3795.8393      100881.89      1560.6111      100461.43      100145.92      102038.33     -680.00255     -1248.6371      1376.9159      7869.5473      5277.1726      13146.72       172122.69      44.150542      44.150542      88.301084          16040 
    258000   3852.2093      103477.36      1566.9195      103473.04      103758.05      103200.98     -656.3421       1265.9968      1795.5215      7986.4136      5313.2656      13299.679      172077.99      44.14672       44.14672       88.29344           16040 
    259000   3824.769       103459.72      1573.2414      102896.7       105067.41      102415.05      941.46093      197.8702       828.21459      7929.5243      5244.3379      13173.862      171877.22      44.129545      44.129545      88.259089          16040 
    260000   3777.1285      103982.02      1579.5623      102507.48      104327.06      105111.52      266.95355      1845.2935     -1983.7993      7830.7559      5383.2574      13214.013      172062.44      44.14539       44.14539       88.29078           16040 
    261000   3797.4864      101804.32      1585.8783      101915.45      100957.33      102540.18     -652.22421      1825.1531     -1610.4411      7872.9619      5307.8576      13180.819      172204.19      44.15751       44.15751       88.315019          16040 
    262000   3784.5129      102394.59      1592.1924      101176.84      102558.79      103448.15      1514.7083     -366.30165      1025.4433      7846.0652      5369.902       13215.967      172240.07      44.160576      44.160576      88.321152          16040 
    263000   3772.0229      99541.142      1598.5051      99513.328      99660.915      99449.184      1768.2167      2475.9634     -1046.0825      7820.171       5297.5377      13117.709      172322.19      44.167593      44.167593      88.335187          16040 
    264000   3801.57        99404.425      1604.8169      98118.092      100841.97      99253.211      2010.5236     -844.37615      540.55452      7881.4281      5210.0509      13091.479      172376.28      44.172214      44.172214      88.344428          16040 
    265000   3785.4167      97841.677      1611.1375      97953.165      97959.01       97612.858     -104.68675      719.50786      296.56809      7847.939       5298.8836      13146.823      172667.39      44.197066      44.197066      88.394133          16040 
    266000   3753.5183      95998.298      1617.4596      96570.589      95485.323      95938.983      841.0232      -828.53933      114.50594      7781.8072      5210.0851      12991.892      172581.04      44.189698      44.189698      88.379396          16040 
    267000   3772.4849      96766.65       1623.7782      98732.193      94560.268      97007.489      2082.216      -491.21887     -719.8243       7821.1287      5207.8293      13028.958      172559.1       44.187825      44.187825      88.375649          16040 
    268000   3793.104       98548.441      1630.0934      100531.74      97867.054      97246.529      246.71407     -1064.3662     -1904.7817      7863.8764      5223.3893      13087.266      172363.37      44.171112      44.171112      88.342223          16040 
    269000   3798.2392      99600.879      1636.4057      98934.125      100951.47      98917.042      1275.5345     -664.02347     -188.21342      7874.5227      5300.6765      13175.199      172408.57      44.174972      44.174972      88.349944          16040 
    270000   3803.2055      102082.94      1642.7165      102728.01      100709.19      102811.62     -2266.0693      94.637822      1122.0251      7884.8189      5225.8961      13110.715      172127.25      44.150932      44.150932      88.301864          16040 
    271000   3797.3678      100726.43      1649.0323      100214.56      100505.36      101459.37     -1531.5353      2392.9988     -2437.0729      7872.7161      5364.9196      13237.636      172315.1       44.166987      44.166987      88.333975          16040 
    272000   3793.2407      102451.03      1655.3554      104319.7       101875.47      101157.92      1215.2361      18.870054      978.59498      7864.1597      5344.6848      13208.845      172059.71      44.145156      44.145156      88.290313          16040 
    273000   3795.3542      102989.81      1661.6745      104443.57      101766.84      102759.03     -978.21212      536.84964      1028.9251      7868.5416      5264.0067      13132.548      171989.38      44.139141      44.139141      88.278282          16040 
    274000   3785.6428      98705.108      1667.993       99731.364      98458.693      97925.266      2165.1022      874.89156     -1207.1635      7848.4079      5251.7379      13100.146      172428.9       44.176708      44.176708      88.353417          16040 
    275000   3729.6042      97110.58       1674.3094      96920.534      97922.185      96489.022     -73.510785     -770.56317     -781.54755      7732.2283      5314.7752      13047.003      172500.63      44.182833      44.182833      88.365667          16040 
    276000   3787.8692      96991.979      1680.6224      94699.88       97703.902      98572.154     -93.435129     -3300.3614      1286.3113      7853.0235      5220.3372      13073.361      172520.97      44.18457       44.18457       88.369141          16040 
    277000   3811.8463      102724.58      1686.9397      103153.46      101869.57      103150.69     -1410.1045      2784.7565      1240.6711      7902.7329      5177.3937      13080.127      172017.11      44.141513      44.141513      88.283026          16040 
    278000   3802.0163      104508.09      1693.2647      106136.5       102020.12      105367.64     -155.96656      460.36544      1447.1985      7882.3535      5357.5932      13239.947      172068.58      44.145916      44.145916      88.291832          16040 
    279000   3824.3276      100236.57      1699.5839      101471.42      99295.55       99942.736     -2747.6799     -588.17101     -1459.3467      7928.6093      5306.2716      13234.881      172303.54      44.166         44.166         88.332             16040 
    280000   3820.7007      99296.919      1705.8989      98505.479      100736.46      98648.821     -966.62786      1064.885      -514.42592      7921.09        5157.5231      13078.613      172324.25      44.167769      44.167769      88.335538          16040 
    281000   3823.7044      97238.156      1712.2147      97124.896      98404.848      96184.722     -2135.1859     -921.91749     -1072.1176      7927.3173      5263.7188      13191.036      172518.85      44.184389      44.184389      88.368778          16040 
    282000   3782.7974      103436.4       1718.5251      103469.83      102633.21      104206.15     -1913.6237     -163.44437      627.1549       7842.5086      5256.5895      13099.098      172020.42      44.141796      44.141796      88.283592          16040 
    283000   3776.1232      107419.37      1724.8431      107124.83      107229.14      107904.13     -1169.0146      1010.83        2892.4177      7828.6718      5351.0115      13179.683      171800.01      44.122936      44.122936      88.245871          16040 
    284000   3794.9443      102357.42      1731.1693      103155.5       101579.83      102336.92     -412.80841     -1654.7667     -1041.7033      7867.6917      5302.4578      13170.15       172135.25      44.151616      44.151616      88.303233          16040 
    285000   3773.9715      96760.287      1737.4873      94926.142      96036.407      99318.312      1659.1817     -48.855348      534.01978      7824.2108      5152.0946      12976.305      172412.52      44.17531       44.17531       88.35062           16040 
    286000   3795.1962      97804.429      1743.7934      97086.627      98786.108      97540.551      142.80736     -1619.604       1356.9059      7868.2139      5331.2765      13199.49       172529.97      44.185338      44.185338      88.370676          16040 
[...]
   3930000   3391.1812      102015.57      6374.6058      95075.286      105480.49      105490.94     -1711.9325     -997.36751     -135.6827       7030.6086      12255.305      19285.913      193787.66      45.51798       45.51798       93.531987          16040 
   3931000   3392.8992      100071.08      6381.3874      93540.373      103312.45      103360.42     -553.02228     -2218.241       519.48395      7034.1704      12231.062      19265.232      194110.68      45.543257      45.543257      93.583926          16040 
   3932000   3417.7853      97765.138      6388.1772      93062.277      98961.785      101271.35      1666.7139     -315.70922     -450.44204      7085.7644      12197.942      19283.706      193790.98      45.51824       45.51824       93.53252           16040 
   3933000   3359.3687      101318.42      6394.9893      94747.801      104047.73      105159.74     -1885.104       167.97705     -625.27678      6964.6548      12325.059      19289.714      193666.44      45.508487      45.508487      93.512479          16040 
   3934000   3379.8954      100477.92      6401.77        94064.176      103637.62      103731.97      271.27205      1809.8801     -1653.7477      7007.2109      12275.792      19283.003      193757.17      45.515593      45.515593      93.52708           16040 
   3935000   3379.3653      100718.68      6408.5526      95054.104      104605.65      102496.29     -1585.665       1279.6599      827.02296      7006.1119      12282.641      19288.753      193661.66      45.508112      45.508112      93.51171           16040 
   3936000   3377.4302      95748.938      6415.3306      91274.157      97210.878      98761.779      430.34415      353.53485     -859.68008      7002.0999      12246.783      19248.882      194304.18      45.558385      45.558385      93.615012          16040 
   3937000   3382.4226      96950.159      6422.1114      89436.617      100612.57      100801.29      1466.3601      3150.1232     -3793.7631      7012.4503      12240.448      19252.898      194233.85      45.552888      45.552888      93.603716          16040 
   3938000   3399.3655      99547.37       6428.9096      94428.621      102467.56      101745.93     -713.43724      538.42447     -585.60361      7047.5764      12215.538      19263.115      194076.27      45.540566      45.540566      93.578396          16040 
   3939000   3388.0214      98577.642      6435.702       92091.815      103718.1       99923.014     -1243.2803      269.78919      2556.2205      7024.0577      12249.714      19273.772      193904.08      45.527093      45.527093      93.550712          16040 
   3940000   3401.8845      100235.32      6442.5064      93085.434      105783.66      101836.86      372.04236     -1080.6195     -1188.6293      7052.7986      12214.359      19267.157      194008.19      45.53524       45.53524       93.567453          16040 
   3941000   3443.6963      100969.91      6449.3047      96340.111      99941.339      106628.29      136.75415     -484.03368     -368.01907      7139.4831      12159.967      19299.45       193487.21      45.494444      45.494444      93.483624          16040 
   3942000   3368.0352      97739.084      6456.1024      92678.446      101449.23      99089.58       144.13344      2394.1408     -1292.183       6982.6222      12263.833      19246.455      194337.52      45.56099       45.56099       93.620365          16040 
   3943000   3394.6869      101643.45      6462.9133      95860.059      103868.97      105201.32     -570.39006     -550.36476     -1097.8818      7037.8767      12235.474      19273.351      193891.01      45.526071      45.526071      93.548611          16040 
   3944000   3426.359       103699.14      6469.7111      99462.034      102202.37      109433.01      630.08875      1164.3048      1424.0435      7103.5394      12183.51       19287.05       193661.68      45.508114      45.508114      93.511714          16040 
   3945000   3414.119       100929.98      6476.4987      95280.286      104798.22      102711.45      2313.5916     -1050.0789     -141.46596      7078.1633      12187.099      19265.262      194009.88      45.535372      45.535372      93.567724          16040 
   3946000   3384.4574      102938.05      6483.2883      98267.637      104543.54      106002.97     -2757.4601     -918.95018     -3658.4293      7016.6688      12267.184      19283.853      193709.98      45.511897      45.511897      93.519487          16040 
   3947000   3393.6831      100289.26      6490.0753      96845.393      105267.78      98754.601      577.53036     -172.63816     -1671.8699      7035.7956      12232.735      19268.531      193950.38      45.530717      45.530717      93.558158          16040 
   3948000   3377.5173      100283.76      6496.8699      93298.788      102306.44      105246.07     -4115.167      -467.11116      2628.0751      7002.2806      12274.265      19276.546      193826.08      45.520988      45.520988      93.538167          16040 
   3949000   3378.262       98031.495      6503.6588      90625.561      102172.1       101296.83     -2545.0742     -1656.8234      2061.7486      7003.8244      12231.77       19235.594      194479.09      45.572052      45.572052      93.643094          16040 
   3950000   3368.047       101147.11      6510.4392      95607.149      101914.17      105920.02     -1165.3471     -4167.5585      1929.4712      6982.6468      12290.612      19273.259      193865.42      45.524067      45.524067      93.544494          16040 
   3951000   3412.6912      104035.59      6517.2289      101100.2       105894.73      105111.82     -599.44863     -1581.3465      962.92084      7075.2031      12234.157      19309.36       193295.3       45.479398      45.479398      93.452706          16040 
   3952000   3389.5872      98476.784      6524.0177      91859.286      102737.33      100833.73     -563.08042     -1998.3598     -1652.9582      7027.304       12239.417      19266.721      193971.45      45.532365      45.532365      93.561545          16040 
   3953000   3384.6215      93589.156      6530.8289      86249.409      97561.993      96956.065     -1306.0695      1976.8481      37.311022      7017.0089      12229.284      19246.293      194300.39      45.558089      45.558089      93.614403          16040 
   3954000   3396.2078      103188.71      6537.6109      99933.577      105762.32      103870.25     -1000.0634     -2095.9094     -2784.6925      7041.0298      12269.932      19310.961      193268.52      45.477298      45.477298      93.448391          16040 
   3955000   3391.2095      102707.22      6544.3881      93416.455      104276.94      110428.25      1342.361      -1398.0059     -1314.749       7030.6672      12259.665      19290.333      193585.7       45.502162      45.502162      93.499482          16040 
   3956000   3374.1429      101294.68      6551.1715      94709.547      102879.48      106295         710.70419      213.47504      584.7301       6995.2847      12281.536      19276.82       193789.64      45.518135      45.518135      93.532305          16040 
   3957000   3372.753       98757.625      6557.9675      88927.241      103729.9       103615.74     -515.04065      977.13941      376.03039      6992.4031      12258.894      19251.297      194188.34      45.54933       45.54933       93.596405          16040 
   3958000   3383.6576      101525.39      6564.7835      97822.07       101992.56      104761.54     -295.25057     -2745.443      -191.72275      7015.0106      12280.946      19295.957      193446.89      45.491284      45.491284      93.477129          16040 
   3959000   3409.7357      99064.506      6571.5672      92202.32       103541.72      101449.48      140.24711      606.47923     -341.41966      7069.0758      12208.103      19277.179      193731.36      45.513571      45.513571      93.522927          16040 
   3960000   3398.4969      100940.16      6578.3488      95545.87       102205.04      105069.57      3353.4519      746.26725     -927.43627      7045.7756      12232.456      19278.231      193694.52      45.510687      45.510687      93.516999          16040 
   3961000   3363.7042      97974.846      6585.1307      91781.749      104270.59      97872.197      2718.1931     -1733.0733     -2814.5543      6973.6433      12278.577      19252.22       194104.18      45.542749      45.542749      93.582882          16040 
   3962000   3369.7323      101619.7       6591.9227      93455.769      104178.7       107224.61     -755.90347     -2174.621       1171.7954      6986.1407      12281.045      19267.186      193856.86      45.523397      45.523397      93.543117          16040 
   3963000   3373.1782      99578.533      6598.7119      93696.369      100303.65      104735.58     -237.75472      299.03484     -62.571282      6993.2847      12269.229      19262.514      193918.79      45.528244      45.528244      93.553078          16040 
   3964000   3383.7527      100733.33      6605.5076      96320.927      101383.42      104495.64      1818.6685     -1323.0582     -782.37288      7015.2079      12246.95       19262.158      193913.73      45.527848      45.527848      93.552264          16040 
   3965000   3339.4971      99031.876      6612.3042      92098.577      102843.96      102153.09     -166.29416     -652.1411      -1482.6026      6923.457       12337.992      19261.449      193916.43      45.52806       45.52806       93.552699          16040 
   3966000   3367.273       100203.4       6619.1292      94948.88       103041.53      102619.79     -435.88686     -405.52162     -2390.2622      6981.0421      12269.347      19250.389      194095.1       45.542038      45.542038      93.581421          16040 
   3967000   3364.5061      101804.7       6625.9206      95086.263      104298.45      106029.4       1995.4756     -1852.0759      1272.6508      6975.3057      12293.772      19269.077      193789.36      45.518113      45.518113      93.532259          16040 
   3968000   3359.8214      96498.362      6632.7033      90312.073      98193.538      100989.48     -1336.9679     -293.34769     -1278.3069      6965.5935      12258.683      19224.276      194502.49      45.573879      45.573879      93.646849          16040 
   3969000   3389.79        100749.34      6639.4975      93597.062      106416.76      102234.19      436.8626      -149.75859     -79.112336      7027.7244      12233.745      19261.469      193905.8       45.527228      45.527228      93.550989          16040 
   3970000   3373.7475      103028.41      6646.2857      100300.74      102963.82      105820.67     -2052.2711     -1900.7675     -995.50049      6994.4649      12299.92       19294.385      193369.26      45.485198      45.485198      93.464624          16040 
   3971000   3388.2767      97342.749      6653.0879      91739.192      100488.19      99800.861     -1649.4247      521.49529     -193.36684      7024.5869      12248.209      19272.796      193691.44      45.510445      45.510445      93.516503          16040 
   3972000   3373.7669      96043.21       6659.8875      89317.95       97985.679      100826         286.88675     -952.26609     -1560.1229      6994.5052      12244.346      19238.852      194227.75      45.552411      45.552411      93.602736          16040 
   3973000   3358.4617      100585.04      6666.6696      94880.012      103195.86      103679.24      2092.002       1612.8243      1885.8249      6962.7745      12301.832      19264.606      193814.65      45.520093      45.520093      93.536328          16040 
   3974000   3387.7974      99530.642      6673.4563      94293.769      105234.77      99063.385      1852.3603      2053.9527     -1649.419       7023.5934      12241.099      19264.692      193805.04      45.519341      45.519341      93.534782          16040 
   3975000   3367.5525      100051.38      6680.2405      96675.028      105300.89      98178.227     -329.70969     -269.29035     -3235.6319      6981.6215      12295.215      19276.836      193601.49      45.503399      45.503399      93.502024          16040 
   3976000   3377.9894      97314.539      6687.0439      89767.109      101353.45      100823.05     -564.20604      1778.2768     -503.31317      7003.2592      12232.048      19235.307      194279.99      45.556495      45.556495      93.611127          16040 
   3977000   3376.4904      100018.68      6693.853       96165.4        101417.86      102472.79     -3151.2565      1291.8712      402.13981      7000.1515      12293.706      19293.857      193331.41      45.48223       45.48223       93.458525          16040 
   3978000   3372.4369      99647.055      6700.6365      92565.207      101081.16      105294.8      -450.80497      156.30453      1706.9472      6991.748       12290.627      19282.375      193512.27      45.496408      45.496408      93.487658          16040 
   3979000   3389.1202      99644.43       6707.4228      92443.54       101167.77      105321.98      1915.5704     -3685.0637     -2008.1693      7026.3357      12253.699      19280.035      193541.8       45.498722      45.498722      93.492414          16040 
   3980000   3415.0361      104195.12      6714.2091      99664.894      106365.32      106555.16      331.31687      731.39758      2866.7177      7080.0648      12223.398      19303.463      193141.1       45.467301      45.467301      93.427849          16040 
   3981000   3387.5263      99408.572      6721.007       92666.406      102912.39      102646.92     -68.861466     -379.00778     -453.86587      7023.0312      12226.565      19249.597      193989.59      45.533785      45.533785      93.564463          16040 
   3982000   3384.0986      101298.26      6727.8112      95710.773      104955.33      103228.67      4215.6918     -208.14278     -343.05214      7015.925       12242.968      19258.893      193838.72      45.521977      45.521977      93.5402            16040 
   3983000   3383.8174      103738.55      6734.6188      95831.785      111588.5       103795.36     -39.911655      547.10635     -1111.3804      7015.3421      12239.256      19254.598      193901.39      45.526883      45.526883      93.55028           16040 
   3984000   3385.184       100964.17      6741.4131      96196.044      104205.63      102490.83     -1463.6622      1199.3171     -3333.2331      7018.1752      12258.848      19277.023      193526         45.497484      45.497484      93.489871          16040 
   3985000   3378.9578      103067.02      6748.2273      97297.526      109671.55      102231.97      353.63564     -1153.5249     -1174.4807      7005.2671      12284.912      19290.179      193299.05      45.479692      45.479692      93.45331           16040 
   3986000   3385.0885      100465.44      6755.0172      95974.812      101774.28      103647.22     -1826.0225     -704.06388      1601.3541      7017.9772      12255.17       19273.147      193562.78      45.500366      45.500366      93.495792          16040 
   3987000   3388.9918      98958.814      6761.8084      91556.73       103819.43      101500.28     -785.39349      1241.0811      26.310907      7026.0695      12219.4        19245.47       193976.97      45.532797      45.532797      93.562432          16040 
   3988000   3377.7         100890.81      6768.595       94246.814      103788.49      104637.13     -316.48359     -872.61477     -384.37784      7002.6593      12245.328      19247.987      193922.19      45.528511      45.528511      93.553624          16040 
   3989000   3381.968       101120.78      6775.3915      94788.809      106011.51      102562.03      738.32222     -76.637201     -657.51136      7011.5077      12238.686      19250.194      193882.09      45.525372      45.525372      93.547176          16040 
   3990000   3383.9294      99349.109      6782.2051      94801.277      101798.52      101447.53      1329.3385     -182.73701      1436.9677      7015.5743      12232.444      19248.018      193899.04      45.526699      45.526699      93.549901          16040 
   3991000   3411.2031      101542.34      6788.9957      92584.426      105546.54      106496.06     -2464.5994     -2924.0041     -1298.6122      7072.1181      12210.144      19282.262      193342.49      45.483099      45.483099      93.460311          16040 
   3992000   3357.7504      101736.5       6795.7774      92402.935      107366.47      105440.11     -1342.4719      395.68875     -1561.1115      6961.2998      12279.545      19240.845      193995.69      45.534262      45.534262      93.565442          16040 
   3993000   3385.0031      99897.252      6802.5528      95856.133      102438.49      101397.13      895.49619     -1125.1289      1218.1687      7017.8001      12229.603      19247.403      193881.17      45.5253        45.5253        93.547028          16040 
   3994000   3402.149       99776.657      6809.3401      95233.989      102245.79      101850.19     -1935.2342      4347.8894     -1013.3816      7053.3471      12214.06       19267.407      193543.49      45.498854      45.498854      93.492686          16040 
   3995000   3353.338       103115.23      6816.148       98365.268      104813.82      106166.59     -1619.9723      501.68213     -1249.7292      6952.1521      12312.46       19264.612      193579.52      45.501678      45.501678      93.498487          16040 
   3996000   3361.8337      97542.713      6822.9476      92029.983      100542.74      100055.41      1001.8653      1328.8351      1292.9151      6969.7652      12234.938      19204.703      194540.25      45.576828      45.576828      93.65291           16040 
   3997000   3366.2219      101434.56      6829.73        96905.009      102756.83      104641.85     -857.0615      -2908.0824     -61.946582      6978.8628      12261.234      19240.097      193977.79      45.532861      45.532861      93.562565          16040 
   3998000   3409.1189      99361.461      6836.5129      90914.894      105641.47      101528.02     -1225.5409     -1388.7526     -1545.2575      7067.7972      12182.752      19250.549      193810.21      45.519746      45.519746      93.535614          16040 
   3999000   3378.7021      104757.27      6843.2979      100616.86      107477.04      106177.9      -1524.5429      118.70277     -1608.0145      7004.737       12288.134      19292.871      193127.77      45.466255      45.466255      93.425699          16040 
   4000000   3372.7194      98647.75       6850.1016      89040.888      103701.49      103200.87      337.37609      743.08569      393.74685      6992.3335      12239.034      19231.367      194123.75      45.544279      45.544279      93.586027          16040 
Loop time of 6850.1 on 8 procs for 1000000 steps with 16040 atoms

Performance: 6.306 ns/day, 3.806 hours/ns, 145.983 timesteps/s
61.3% CPU use with 1 MPI tasks x 8 OpenMP threads

MPI task timing breakdown:
Section |  min time  |  avg time  |  max time  |%varavg| %total
---------------------------------------------------------------
Pair    | 6575.8     | 6575.8     | 6575.8     |   0.0 | 96.00
Neigh   | 10.432     | 10.432     | 10.432     |   0.0 |  0.15
Comm    | 37.478     | 37.478     | 37.478     |   0.0 |  0.55
Output  | 1.2938     | 1.2938     | 1.2938     |   0.0 |  0.02
Modify  | 200.01     | 200.01     | 200.01     |   0.0 |  2.92
Other   |            | 25.09      |            |       |  0.37

Nlocal:          16040 ave       16040 max       16040 min
Histogram: 1 0 0 0 0 0 0 0 0 0
Nghost:          12666 ave       12666 max       12666 min
Histogram: 1 0 0 0 0 0 0 0 0 0
Neighs:              0 ave           0 max           0 min
Histogram: 1 0 0 0 0 0 0 0 0 0
FullNghs:  1.27094e+06 ave 1.27094e+06 max 1.27094e+06 min
Histogram: 1 0 0 0 0 0 0 0 0 0

Total # of neighbors = 1270940
Ave neighs/atom = 79.235661
Neighbor list builds = 31531
Dangerous builds = 0
Total wall time: 7:07:52
