
atom_style atomic
units metal
boundary p p p
#atom_modify sort 0 0.0
newton on

read_data data.lammps
Reading data file ...
  orthogonal box = (0 0 0) to (43.790145 43.790145 87.58029)
  1 by 1 by 1 MPI processor grid
  reading atoms ...
  16040 atoms
  read_data CPU = 0.057 seconds
# replicate 10 10 20

### interactions

pair_style flare
pair_coeff * * lmp.flare
Reading potential file lmp.flare with DATE: Thu

# compute unc all flare/std/atom L_inv_lmp.flare sparse_desc_lmp.flare
# compute MaxUnc all reduce max c_unc

mass 1 12.011000
mass 2 28.085000

thermo_style custom step temp press cpu pxx pyy pzz pxy pxz pyz ke pe etotal vol lx ly lz atoms    #c_MaxUnc
thermo 1000
timestep 0.0005
restart 100000 restart_*.dat

#################### Equilibrate at P and T_es ##############################
velocity all create $T 41928459 rot yes dist gaussian
velocity all create 3400 41928459 rot yes dist gaussian
fix mom all momentum 1000 linear 1 1 1 angular

fix 1 all npt temp $T $T $(100.0*dt) iso $P $P $(1000.0*dt)
fix 1 all npt temp 3400 $T $(100.0*dt) iso $P $P $(1000.0*dt)
fix 1 all npt temp 3400 3400 $(100.0*dt) iso $P $P $(1000.0*dt)
fix 1 all npt temp 3400 3400 0.050000000000000002776 iso $P $P $(1000.0*dt)
fix 1 all npt temp 3400 3400 0.050000000000000002776 iso 900000 $P $(1000.0*dt)
fix 1 all npt temp 3400 3400 0.050000000000000002776 iso 900000 900000 $(1000.0*dt)
fix 1 all npt temp 3400 3400 0.050000000000000002776 iso 900000 900000 0.5
dump 1 all custom 1000 1equil.bin id type x y z vx vy vz
run   10000 # report performance
Neighbor list info ...
  update every 1 steps, delay 10 steps, check yes
  max neighbors/atom: 2000, page size: 100000
  master list distance cutoff = 6
  ghost atom cutoff = 6
  binsize = 6, bins = 8 8 15
  1 neighbor lists, perpetual/occasional/extra = 1 0 0
  (1) pair flare/kk, perpetual
      attributes: full, newton on, kokkos_device
      pair build: full/bin/kk/device
      stencil: full/bin/3d
      bin: kk/device
Per MPI rank memory allocation (min/avg/max) = 16.04 | 16.04 | 16.04 Mbytes
   Step          Temp          Press           CPU            Pxx            Pyy            Pzz            Pxy            Pxz            Pyz           KinEng         PotEng         TotEng         Volume           Lx             Ly             Lz          Atoms   
         0   3400           79264.947      0              79901.728      78805.53       79087.584      1130.3329     -219.77229     -813.23023      7048.8918     -2985.8921      4062.9997      167941.93      43.790145      43.790145      87.58029           16040 
      1000   3465.3862      900593.38      7.4044973      897281.79      902441.57      902056.79      3234.5503      1605.3124      3420.8405      7184.4506      11808.947      18993.398      132872.89      40.501284      40.501284      81.002569          16040 
      2000   3363.8736      899524.24      15.073859      898576.27      900661.39      899335.07     -2156.0561      2335.2179      513.34591      6973.9945      11606.702      18580.697      132560.95      40.469565      40.469565      80.939131          16040 
      3000   3410.004       898444.02      22.744426      898061.44      896461.53      900809.07     -2120.3744      531.34862     -867.39976      7069.6321      11826.875      18896.507      132631.63      40.476756      40.476756      80.953513          16040 
      4000   3386.1407      899797.79      30.414793      898769.89      899814         900809.46     -2193.3126      1280.0996     -6138.4541      7020.1586      11656.291      18676.45       132507.5       40.464125      40.464125      80.92825           16040 
      5000   3419.6629      898383.3       38.078428      896037.51      897793.47      901318.92      3597.5568     -2974.2888      184.79179      7089.6569      11793.985      18883.642      132572.61      40.470752      40.470752      80.941504          16040 
      6000   3386.4698      900093.54      45.745317      900425.13      899866.39      899989.09      623.13769      3536.5109     -4681.9335      7020.841       11737.142      18757.983      132458.33      40.459119      40.459119      80.918239          16040 
      7000   3409.0879      900911.85      53.408806      902777.55      901555.79      898402.22      291.03315     -3771.7339      581.09543      7067.7328      11783.833      18851.566      132506.65      40.464039      40.464039      80.928077          16040 
      8000   3378.1633      898169.89      61.071646      898812.05      897814.71      897882.9      -4016.458       977.23891      1908.1925      7003.62        11701.076      18704.696      132552.82      40.468737      40.468737      80.937475          16040 
      9000   3394.0473      897906.89      68.733342      898043.72      897400.1       898276.86     -1148.8379      2898.2264      665.17209      7036.5507      11681.198      18717.749      132594.74      40.473004      40.473004      80.946008          16040 
     10000   3385.8904      903173.38      76.372362      904098.2       902466.65      902955.29      1364.1204      642.99273     -1916.9744      7019.6397      11787.604      18807.243      132471.65      40.460476      40.460476      80.920951          16040 
Loop time of 76.3724 on 8 procs for 10000 steps with 16040 atoms

Performance: 5.656 ns/day, 4.243 hours/ns, 130.937 timesteps/s
61.9% CPU use with 1 MPI tasks x 8 OpenMP threads

MPI task timing breakdown:
Section |  min time  |  avg time  |  max time  |%varavg| %total
---------------------------------------------------------------
Pair    | 73.202     | 73.202     | 73.202     |   0.0 | 95.85
Neigh   | 0.10494    | 0.10494    | 0.10494    |   0.0 |  0.14
Comm    | 0.39811    | 0.39811    | 0.39811    |   0.0 |  0.52
Output  | 0.022894   | 0.022894   | 0.022894   |   0.0 |  0.03
Modify  | 2.3724     | 2.3724     | 2.3724     |   0.0 |  3.11
Other   |            | 0.2723     |            |       |  0.36

Nlocal:          16040 ave       16040 max       16040 min
Histogram: 1 0 0 0 0 0 0 0 0 0
Nghost:          14643 ave       14643 max       14643 min
Histogram: 1 0 0 0 0 0 0 0 0 0
Neighs:              0 ave           0 max           0 min
Histogram: 1 0 0 0 0 0 0 0 0 0
FullNghs:  1.76742e+06 ave 1.76742e+06 max 1.76742e+06 min
Histogram: 1 0 0 0 0 0 0 0 0 0

Total # of neighbors = 1767422
Ave neighs/atom = 110.1884
Neighbor list builds = 249
Dangerous builds = 0
run  990000
Per MPI rank memory allocation (min/avg/max) = 16.48 | 16.48 | 16.48 Mbytes
   Step          Temp          Press           CPU            Pxx            Pyy            Pzz            Pxy            Pxz            Pyz           KinEng         PotEng         TotEng         Volume           Lx             Ly             Lz          Atoms   
     10000   3385.8904      903173.38      0              904098.2       902466.65      902955.29      1364.1204      642.99273     -1916.9744      7019.6397      11787.604      18807.243      132471.65      40.460476      40.460476      80.920951          16040 
     11000   3370.6502      894320.23      7.6383261      895755.69      893827.79      893377.22     -4084.2216      1403.7382      1302.2726      6988.0436      11637.439      18625.482      132730.58      40.48682       40.48682       80.97364           16040 
     12000   3400.2201      907998.73      15.283454      907434.74      905908.41      910653.03     -4636.3095      183.37783     -1176.1177      7049.348       11765.691      18815.039      132300.32      40.443026      40.443026      80.886051          16040 
     13000   3430.2715      896410.61      22.943298      895563.36      896094.14      897574.34      603.45068     -42.003543      4163.8718      7111.6508      11693.621      18805.272      132675.59      40.481228      40.481228      80.962456          16040 
     14000   3395.2278      899382.76      30.587997      901576.99      899000.07      897571.22     -6490.6964     -2119.3406     -1400.3693      7038.9981      11693.085      18732.083      132541.21      40.467556      40.467556      80.935112          16040 
     15000   3374.7521      901763.48      38.229265      903797.59      899583.75      901909.11      2373.0323     -700.54447      329.70975      6996.5478      11771.594      18768.142      132485.97      40.461933      40.461933      80.923866          16040 
     16000   3412.3372      898153.3       45.864404      897974.73      896924.01      899561.16     -258.35956     -4112.3443      1285.3217      7074.4694      11572.944      18647.414      132626.41      40.476225      40.476225      80.952451          16040 
     17000   3400.3789      905526.51      53.512869      906260.42      905585.23      904733.89      3791.5081     -2643.1093     -3765.8732      7049.6773      11659.257      18708.934      132417.77      40.454989      40.454989      80.909979          16040 
     18000   3388.2483      895113.11      61.173409      895033.9       893126.67      897178.77      4146.7477      11.196654     -2424.981       7024.5281      11557.642      18582.17       132715.59      40.485295      40.485295      80.970591          16040 
     19000   3403.3709      899831.16      68.838129      900071.94      899918.89      899502.65      327.85501      4225.1061     -5317.1324      7055.8804      11632.101      18687.982      132486.86      40.462024      40.462024      80.924048          16040 
     20000   3433.9466      901272.28      76.496332      900293.23      901413.22      902110.39      4267.5688      3662.256       987.31147      7119.27        11583.753      18703.023      132502.15      40.46358       40.46358       80.927161          16040 
     21000   3409.5811      896703.71      84.158664      896389.32      897282.84      896438.98      2896.2753      387.67351     -438.65718      7068.7553      11537.23       18605.986      132644.35      40.47805       40.47805       80.9561            16040 
     22000   3437.6751      903215.3       91.816866      904057.45      901104.47      904483.97      843.54076      2657.1736      3615.5749      7126.9999      11640.415      18767.415      132433.55      40.456596      40.456596      80.913193          16040 
     23000   3387.9225      896229.06      99.477272      898103.48      893507.98      897075.72      1007.3075     -1312.383      -3126.2305      7023.8527      11566.7        18590.552      132627.89      40.476376      40.476376      80.952751          16040 
     24000   3370.9496      906728.25      107.13729      906422.78      907258.17      906503.81      1201.4054      2255.0874      5754.7761      6988.6644      11660.297      18648.962      132372.74      40.450403      40.450403      80.900807          16040 
     25000   3374.9834      895913.81      114.79419      895583.17      898862.85      893295.41     -3250.087       543.07395     -3323.9188      6997.0273      11545.863      18542.89       132634.64      40.477063      40.477063      80.954126          16040 
     26000   3389.2811      902977.03      122.44951      904470.39      901444.81      903015.89     -349.58606      688.90102     -2489.2575      7026.6693      11568.163      18594.833      132517.11      40.465103      40.465103      80.930207          16040 
     27000   3422.3987      901816.84      130.10356      901268.62      901349.69      902832.21     -2655.8293      1327.2825      3649.3932      7095.3289      11534.464      18629.793      132521.88      40.465589      40.465589      80.931178          16040 
     28000   3354.7031      897095.99      137.76062      896585.02      898250.19      896452.77      1106.0378      5924.9248      1353.4911      6954.9821      11573.774      18528.756      132536.54      40.467081      40.467081      80.934162          16040 
     29000   3434.2596      899416.87      145.41735      900673.1       899019.24      898558.27      5491.2382     -2163.7516      2052.009       7119.9188      11533.023      18652.942      132582.78      40.471787      40.471787      80.943573          16040 
     30000   3399.1347      903869.33      153.07689      904946.2       902509.92      904151.86     -430.57898      3744.2458      2580.6094      7047.0979      11579.371      18626.469      132460.6       40.459351      40.459351      80.918702          16040 
     31000   3419.0636      896894.9       160.73293      895509.09      895132.97      900042.63     -695.54152     -3389.1311      1198.403       7088.4145      11445.668      18534.082      132622.51      40.475828      40.475828      80.951657          16040 
     32000   3407.6237      899522.75      168.38751      899263.86      898757.9       900546.49      1563.2981     -2380.876       3245.3202      7064.6973      11511.313      18576.01       132541.39      40.467574      40.467574      80.935149          16040 
     33000   3368.3228      903437.43      176.03465      904443.36      902194.96      903673.98     -897.90595     -1576.6239      2331.0308      6983.2184      11621.163      18604.381      132410.64      40.454264      40.454264      80.908527          16040 
     34000   3391.7539      896276.68      183.68424      895131.92      896834.08      896864.06      2309.4914      1439.3893     -564.40629      7031.796       11538.057      18569.853      132600.16      40.473555      40.473555      80.94711           16040 
     35000   3393.2163      903662.71      191.34279      906749.77      902260.01      901978.34      6004.8883      376.37263     -2611.3829      7034.8279      11677.586      18712.413      132447.08      40.457974      40.457974      80.915949          16040 
     36000   3380.5164      895419.15      199.00227      895477.35      892970.88      897809.23      189.10838      2363.9413     -694.01518      7008.4983      11414.074      18422.572      132665.1       40.480161      40.480161      80.960323          16040 
     37000   3384.979       905603.99      206.65696      904766.27      905432.55      906613.15      75.861089     -1460.95        3240.8521      7017.7503      11691.19       18708.94       132385.95      40.451749      40.451749      80.903497          16040 
     38000   3384.7604      896377.45      214.3129       894891.66      896868.04      897372.65      1403.3206      2105.6612     -461.36725      7017.2969      11479.724      18497.021      132653.84      40.479016      40.479016      80.958032          16040 
     39000   3394.6481      900113.42      221.96198      900604.58      902937.9       896797.77      790.11526      2253.6528      7360.4934      7037.7963      11508.507      18546.303      132571.46      40.470635      40.470635      80.94127           16040 
     40000   3379.8638      903112.23      229.61313      903416.23      903759.62      902160.86     -1249.02       -1478.4496      356.81848      7007.1453      11529.183      18536.328      132464.74      40.459772      40.459772      80.919544          16040 
     41000   3391.0595      894278.17      237.2665       893694.1       893839.17      895301.24     -2349.8072      5293.1985     -666.05905      7030.3564      11515.655      18546.011      132709.91      40.484718      40.484718      80.969436          16040 
     42000   3380.4301      907839.35      244.91633      908073.42      907508.11      907936.51      169.92374     -125.8782      -3003.2292      7008.3193      11611.001      18619.32       132343.66      40.447441      40.447441      80.894881          16040 
     43000   3383.8957      897450.07      252.57213      895170.95      899116.53      898062.74     -3203.7213      699.87957     -3534.6643      7015.5044      11526.611      18542.115      132634.43      40.477041      40.477041      80.954082          16040 
     44000   3386.7266      900148.38      260.22621      900372.6       900346.98      899725.56      4218.4878      186.10804      4473.1686      7021.3734      11364.294      18385.668      132541.48      40.467583      40.467583      80.935166          16040 
     45000   3406.0939      902598.31      267.87203      903734.86      901525.82      902534.24      2440.1989     -317.14382      1218.0787      7061.5258      11520.177      18581.703      132491.5       40.462497      40.462497      80.924993          16040 
     46000   3393.9324      894139.28      275.5211       895086.51      893295.7       894035.64     -4098.8353     -165.90468      2113.5358      7036.3124      11479.302      18515.615      132718.57      40.485599      40.485599      80.971197          16040 
     47000   3380.6851      903356.66      283.17352      902831.37      905205.06      902033.56      2788.295      -5657.9149     -3250.2045      7008.848       11542.418      18551.266      132431.06      40.456342      40.456342      80.912685          16040 
     48000   3441.5924      898462.91      290.82497      898091.24      896854.87      900442.63     -213.77278      1978.1857     -1376.9976      7135.1213      11438.242      18573.363      132627.11      40.476297      40.476297      80.952593          16040 
     49000   3369.6724      903952.16      298.46955      902282.14      903298.17      906276.16      4943.8226      1534.8027      1912.2571      6986.0166      11590.609      18576.626      132459.09      40.459197      40.459197      80.918394          16040 
     50000   3411.9425      893317.6       306.12316      892429.56      893173.02      894350.22     -304.13506      406.06462      5556.7517      7073.651       11471.212      18544.863      132743.05      40.488088      40.488088      80.976175          16040 
     51000   3403.4121      900505.22      313.77605      902191.75      900617.37      898706.53     -734.13506      2353.5446      1163.6747      7055.9657      11473.61       18529.576      132503.76      40.463744      40.463744      80.927489          16040 
     52000   3416.161       902324.83      321.43581      899562.36      906782.03      900630.1      -1557.8825      2974.8753     -1163.9075      7082.3969      11564.83       18647.227      132510.34      40.464414      40.464414      80.928828          16040 
     53000   3421.5752      900920.28      329.09785      903344.34      901595.3       897821.2      -2354.2119     -1252.6548     -777.15496      7093.6215      11464.893      18558.514      132555.29      40.468989      40.468989      80.937978          16040 
     54000   3406.7871      898118.03      336.75504      898810.94      897385.85      898157.3       2410.6758     -1439.2577      298.76702      7062.9628      11467.682      18530.645      132651.75      40.478803      40.478803      80.957605          16040 
     55000   3396.9711      898904.8       344.41088      898183.96      899906.29      898624.14     -1669.4504      4604.0383      4175.3963      7042.6122      11546.728      18589.341      132567.69      40.470251      40.470251      80.940502          16040 
     56000   3383.9159      899869         352.06891      901673.3       897970.03      899963.68     -3218.5531      1204.1462     -2649.6824      7015.5461      11479.22       18494.766      132596.8       40.473213      40.473213      80.946426          16040 
     57000   3373.5959      897410.9       359.71738      896059.44      897832.13      898341.13      1832.7196     -2783.801       657.96373      6994.1507      11492.327      18486.478      132619.34      40.475506      40.475506      80.951012          16040 
     58000   3431.2775      902234.06      367.36921      902027.74      902864.75      901809.68     -1519.7718     -1676.9759     -189.96819      7113.7363      11660.893      18774.629      132498.9       40.46325       40.46325       80.926499          16040 
     59000   3372.8834      892664.22      375.02139      891586.3       891436.57      894969.79     -2521.962      -2647.8884     -1674.1654      6992.6736      11403.317      18395.991      132743.09      40.488091      40.488091      80.976183          16040 
     60000   3425.7517      904933.21      382.67879      904553.92      905146.52      905099.2       4627.7945      711.43746     -2520.6259      7102.2803      11574.325      18676.605      132401.1       40.453292      40.453292      80.906583          16040 
     61000   3380.3942      893428.45      390.3322       894661.73      892266.18      893357.45     -497.64333      5882.3018     -1152.0415      7008.2449      11450.797      18459.041      132698         40.483507      40.483507      80.967014          16040 
     62000   3383.9504      900429.48      397.98608      899118.5       900856.59      901313.35     -942.60799      3429.6667     -357.91456      7015.6177      11496.509      18512.127      132502.58      40.463625      40.463625      80.92725           16040 
     63000   3396.0803      896338.95      405.63571      896158.72      896475.35      896382.78     -6106.3368     -1109.4843     -378.12377      7040.7654      11479.682      18520.447      132585.04      40.472016      40.472016      80.944033          16040 
     64000   3380.012       900162.94      413.29148      903710.81      899189.69      897588.31      803.9101       1262.41        2145.7603      7007.4526      11502.069      18509.521      132537.06      40.467133      40.467133      80.934267          16040 
     65000   3399.3116      900439.81      420.94701      900696.13      901115.22      899508.08      663.29142     -680.3476      -1381.6071      7047.4646      11485.444      18532.909      132548.9       40.468339      40.468339      80.936679          16040 
     66000   3414.7523      900504.71      428.60625      899651.36      900674.69      901188.09     -200.69411      4509.3196     -1005.9436      7079.4764      11557.59       18637.066      132558.01      40.469266      40.469266      80.938533          16040 
     67000   3438.7561      907911.14      436.26666      909189.14      908449.12      906095.16      307.30899      3498.8666     -1094.7978      7129.2411      11624.009      18753.25       132378.03      40.450942      40.450942      80.901884          16040 
     68000   3403.6567      893567.87      443.92043      893047.55      892478.37      895177.7       373.51625     -2050.4081      3362.9275      7056.4728      11413.56       18470.033      132747.52      40.488543      40.488543      80.977085          16040 
     69000   3384.4196      905356.11      451.57419      905793.28      903950.25      906324.8      -1803.2989      5406.5109     -2539.1502      7016.5904      11622.102      18638.693      132457.52      40.459037      40.459037      80.918074          16040 
     70000   3375.2474      899708.68      459.23169      899554.64      898964.76      900606.65     -3458.8218     -104.41721      3150.4565      6997.5746      11493.291      18490.865      132551.6       40.468613      40.468613      80.937227          16040 
     71000   3409.9084      898680.07      466.89522      899045.72      899505.44      897489.05      1667.9336      1055.3517     -2162.7001      7069.4338      11518.217      18587.65       132593.48      40.472875      40.472875      80.945749          16040 
     72000   3386.9932      901152.03      474.55316      899654.95      900681.47      903119.67      5687.8579     -6592.9292      1861.1056      7021.9259      11497.618      18519.544      132497.18      40.463075      40.463075      80.92615           16040 
     73000   3398.4268      899403.12      482.20692      902942.42      898549.21      896717.74      2394.7701     -91.93586      -2662.3045      7045.6302      11589.254      18634.885      132552.05      40.468659      40.468659      80.937319          16040 
     74000   3400.4816      905307.57      489.86421      907920.02      902923.09      905079.59     -2644.7537      3111.2481     -2345.5345      7049.8902      11545.564      18595.455      132432.04      40.456442      40.456442      80.912885          16040 
     75000   3398.0043      897141.62      497.51729      897865.43      895467.02      898092.41     -857.73256      2677.7479      140.58953      7044.7543      11457.2        18501.954      132669.38      40.480596      40.480596      80.961193          16040 
     76000   3433.8718      899995.42      505.17206      898546.1       900340.43      901099.74      1500.8314     -2913.1586     -3764.7927      7119.115       11497.918      18617.033      132583.34      40.471844      40.471844      80.943687          16040 
     77000   3363.9064      902782.26      512.82947      900562.26      904328.03      903456.48      3589.6525      1468.4867     -1445.9805      6974.0625      11486.036      18460.099      132476.25      40.460944      40.460944      80.921888          16040 
     78000   3425.1985      899405.38      520.4785       897474.03      898978.46      901763.66     -2837.1         3808.1762     -1735.0221      7101.1334      11467.673      18568.806      132589.87      40.472508      40.472508      80.945015          16040 
     79000   3374.1156      903232.75      528.1313       902197.34      901256.75      906244.16      842.82628      1405.1939     -165.68856      6995.2281      11503.612      18498.84       132446.16      40.45788       40.45788       80.915761          16040 
     80000   3396.4338      893813.94      535.78242      894793.8       894478.56      892169.46     -2048.0166      4983.483       1988.2286      7041.4983      11413.155      18454.653      132691.55      40.482851      40.482851      80.965702          16040 
     81000   3416.0965      906360.38      543.43417      903471.6       905813.28      909796.26      1484.0037     -4300.2483      4594.5812      7082.2631      11579.916      18662.179      132343.03      40.447376      40.447376      80.894753          16040 
     82000   3377.7462      894587.3       551.0896       894819.37      895159.69      893782.84      1473.7016     -798.52484     -4026.2507      7002.7552      11440.398      18443.153      132684.86      40.48217       40.48217       80.964341          16040 
     83000   3426.1287      906820         558.74639      906035.78      907699.64      906724.58      1302.4932     -4588.2454      766.57604      7103.0619      11599.637      18702.698      132447.82      40.45805       40.45805       80.916099          16040 
     84000   3388.0327      901495.41      566.40036      902686.91      900874.64      900924.67     -1208.4181     -2231.4136     -1563.7805      7024.0811      11500.172      18524.253      132523.95      40.465799      40.465799      80.931598          16040 
     85000   3372.6692      903101.24      574.05323      903003.02      903991.39      902309.33      2999.8487      183.60705     -18.953695      6992.2294      11466.948      18459.177      132443.14      40.457573      40.457573      80.915146          16040 
     86000   3418.9125      899847.57      581.7044       899982.52      898779.16      900781.02     -1993.3283     -3167.8566      1886.1217      7088.1013      11496.488      18584.59       132569.45      40.47043       40.47043       80.940861          16040 
     87000   3356.6632      899397.65      589.35414      901863.98      896571.06      899757.92      1356.855      -417.90088     -2270.9329      6959.0457      11426.951      18385.997      132539.14      40.467346      40.467346      80.934691          16040 
     88000   3430.2051      905347.1       597.00517      906365.58      906810.82      902864.92     -2785.3005      4601.8378     -1377.6157      7111.5132      11555.309      18666.822      132403.51      40.453537      40.453537      80.907073          16040 
     89000   3372.4112      886422.84      604.65107      889566.58      887370.94      882330.99     -4585.6259      287.27224      2216.3389      6991.6946      11388.818      18380.513      132885.06      40.50252       40.50252       81.005041          16040 
     90000   3419.7716      903630.01      612.28657      902987.01      903844.68      904058.34      2943.7347      445.26267      1138.511       7089.8822      11508.578      18598.46       132446.22      40.457887      40.457887      80.915774          16040 
     91000   3377.128       899021.08      619.91773      896215.57      899908.43      900939.25     -272.39107      279.46479     -3235.9672      7001.4736      11465.707      18467.18       132649.56      40.47858       40.47858       80.957161          16040 
     92000   3377.5154      899235.2       627.55433      900940.77      896818.46      899946.39      1447.5485      3327.2334     -1775.1151      7002.2767      11385.456      18387.733      132582.01      40.471708      40.471708      80.943416          16040 
     93000   3399.9564      904176.04      635.18872      903704.53      903320.55      905503.04      1972.0047     -4963.2452     -1775.118       7048.8015      11538.099      18586.901      132526.74      40.466084      40.466084      80.932167          16040 
     94000   3387.1902      894559.71      642.82738      894553.86      893781.73      895343.55     -2740.2488      614.64436     -268.94661      7022.3346      11302.705      18325.04       132689.62      40.482655      40.482655      80.965309          16040 
     95000   3430.1526      903900.87      650.456        902352.56      903504.48      905845.56      78.34549       1235.0447      1698.8883      7111.4043      11480.179      18591.583      132476.65      40.460985      40.460985      80.921969          16040 
     96000   3420.0184      900061.41      658.09018      899806.69      900976.75      899400.8      -2916.7213      463.51382     -3156.9457      7090.394       11383.186      18473.58       132559.14      40.469381      40.469381      80.938762          16040 
     97000   3387.3922      895172.9       665.72511      895479.6       894746.68      895292.43      3407.0564     -929.03823      152.87242      7022.7532      11461.993      18484.746      132638.05      40.477409      40.477409      80.954818          16040 
     98000   3421.5134      904181.27      673.36018      903786.32      903447.93      905309.55     -3738.8373      4518.7913     -5092.9256      7093.4935      11567.679      18661.172      132467.06      40.460008      40.460008      80.920016          16040 
     99000   3398.372       894497.76      681.00788      895639.06      893351.62      894502.6      -5448.2691     -1165.5375     -7419.9951      7045.5166      11373.543      18419.06       132719.96      40.48574       40.48574       80.97148           16040 
    100000   3424.2578      907188.53      688.66032      904051.4       907399.72      910114.47      512.71062     -742.29553     -536.3972       7099.1831      11622.079      18721.262      132406.06      40.453797      40.453797      80.907593          16040 
    101000   3377.6126      897577.52      696.30119      897536.83      896375.45      898820.29      976.26961     -148.53177     -72.934302      7002.4782      11426.282      18428.76       132600.2       40.473559      40.473559      80.947117          16040 
    102000   3386.6889      900117.89      704.33341      898196.36      902446.77      899710.55     -3510.527      -887.58838      4095.9193      7021.2951      11513.386      18534.681      132557.59      40.469223      40.469223      80.938446          16040 
    103000   3403.2541      902451.34      711.98131      903404.19      902645.58      901304.24      3773.7174     -50.751225     -3007.1126      7055.6382      11502.211      18557.85       132493.08      40.462658      40.462658      80.925315          16040 
    104000   3415.6715      895804.85      719.6257       896467.69      894142.42      896804.44     -1353.268       470.08498     -4140.4251      7081.382       11335.159      18416.541      132703.07      40.484023      40.484023      80.968045          16040 
    105000   3401.8033      904756.45      728.68982      907052.8       903041.22      904175.32      4958.0864      1363.3567      2221.8904      7052.6304      11615.551      18668.181      132464.65      40.459763      40.459763      80.919525          16040 
    106000   3430.6611      898766.86      736.32519      899063.51      899961.2       897275.89      2371.3639      2749.672       2724.4721      7112.4585      11368.521      18480.98       132631.18      40.47671       40.47671       80.953421          16040 
    107000   3359.9393      902313.8       743.96288      904438.73      903789.38      898713.28      958.68294      7153.4479     -2651.3047      6965.8377      11533.892      18499.729      132498.26      40.463184      40.463184      80.926368          16040 
    108000   3399.1273      899794.28      751.60314      900687.45      901650.44      897044.94     -1554.5942      23.009497     -1348.4622      7047.0826      11498.592      18545.674      132549.63      40.468413      40.468413      80.936825          16040 
    109000   3396.0047      899328.94      759.24254      896087.81      901760.94      900138.07      1458.3344      3014.0781      3717.2696      7040.6087      11370.705      18411.313      132606.16      40.474165      40.474165      80.94833           16040 
    110000   3408.6666      906005.45      766.8836       908036.69      906881.28      903098.38      1421.0543     -1893.5319      3099.7324      7066.8594      11480.116      18546.975      132414.21      40.454627      40.454627      80.909253          16040 
    111000   3414.7172      892321.82      774.53049      892775.02      893279.03      890911.4       4589.4396     -541.71036      1485.2049      7079.4036      11389.025      18468.428      132751.61      40.488958      40.488958      80.977916          16040 
    112000   3420.9355      902168.92      782.17222      904631.18      900319.02      901556.55     -642.15264     -2014.0793     -1446.9292      7092.2954      11513.875      18606.17       132484.58      40.461792      40.461792      80.923584          16040 
    113000   3405.2187      900177.48      789.81791      899953.21      900462.53      900116.7      -2289.42        1563.2335     -728.01506      7059.7112      11470.658      18530.369      132559.74      40.469442      40.469442      80.938883          16040 
    114000   3397.296       900132.88      797.46908      901222.6       900300.21      898875.82      1773.3271      5247.2994     -2266.1934      7043.2858      11474.696      18517.981      132564.46      40.469923      40.469923      80.939845          16040 
    115000   3400.4791      904290.93      805.11968      906720.28      902818.53      903333.97      1795.563      -492.0683      -2591.5025      7049.885       11555.401      18605.286      132492.19      40.462567      40.462567      80.925134          16040 
    116000   3414.8767      896507.56      812.77191      895924.8       897269.34      896328.55     -886.50188      1136.2692     -82.263763      7079.7342      11412.746      18492.48       132634.01      40.476998      40.476998      80.953997          16040 
    117000   3381.3052      901962.36      820.42044      900552.65      902436.12      902898.3       3281.3077     -1742.2336      488.8182       7010.1336      11376.495      18386.629      132495.35      40.462889      40.462889      80.925777          16040 
    118000   3416.5489      901143.99      828.06879      899617.62      903780.48      900033.88     -1802.8612     -2210.0559      336.67896      7083.2009      11424.443      18507.644      132592.33      40.472758      40.472758      80.945516          16040 
    119000   3380.9608      897060.04      835.72176      898596.67      898515.04      894068.4      -3024.6136      583.59095     -2551.8514      7009.4197      11291.634      18301.054      132617.69      40.475338      40.475338      80.950676          16040 
    120000   3410.7404      911391.02      843.371        913049.63      909153.43      911969.99     -5128.944      -7049.6142      940.79881      7071.1589      11576.425      18647.584      132263.69      40.439292      40.439292      80.878584          16040 
    121000   3382.985       889135.95      851.01742      888922.98      889098.22      889386.65     -1612.9102     -1919.8119      4313.0429      7013.6162      11294.538      18308.154      132887.53      40.502772      40.502772      81.005544          16040 
    122000   3358.1441      904078.82      858.66063      905818.3       904460.35      901957.8      -2738.3504     -2889.3808      1956.5154      6962.116       11464.426      18426.542      132464.86      40.459784      40.459784      80.919569          16040 
    123000   3407.002       899443.7       866.30199      901431.48      898158.3       898741.32      597.41329     -1147.2651     -3245.6758      7063.4084      11470.309      18533.718      132570.24      40.470511      40.470511      80.941022          16040 
    124000   3388.2636      901105.62      873.94302      899509.3       899680.05      904127.51     -1287.3625     -3015.4732     -975.4394       7024.5599      11397.263      18421.823      132551.94      40.468649      40.468649      80.937297          16040 
    125000   3381.7327      899943.03      881.5875       899949.66      899633.01      900246.42     -3556.3433      1585.2726      2514.1167      7011.0199      11428.403      18439.423      132536.94      40.467121      40.467121      80.934243          16040 
    126000   3402.386       900877.1       889.22727      901240.43      899551.98      901838.9      -1957.7485      373.41282      1831.5777      7053.8384      11470.678      18524.517      132576.98      40.471196      40.471196      80.942392          16040 
    127000   3384.4765      899647.72      896.87231      899146.79      897592.9       902203.45     -4725.6209      1615.0976     -2021.9485      7016.7084      11409.022      18425.73       132598.8       40.473417      40.473417      80.946834          16040 
    128000   3409.774       905143.73      904.5158       903798.96      905871.24      905761         1020.2092      1275.3072     -468.96078      7069.1554      11518.716      18587.871      132454.56      40.458736      40.458736      80.917472          16040 
    129000   3389.2765      888389.3       912.16213      888045.96      891203.43      885918.52      2240.9138     -1738.5958     -2537.9274      7026.6597      11197.257      18223.917      132901.28      40.504168      40.504168      81.008336          16040 
    130000   3377.8181      904415.75      919.8054       904331.5       903362.64      905553.13     -1523.5721     -351.63252     -4547.0177      7002.9042      11602.587      18605.492      132437.13      40.456961      40.456961      80.913921          16040 
    131000   3376.0785      901147.72      927.4535       900464.27      901600.14      901378.75      1733.2074     -345.21291     -2139.9283      6999.2976      11381.388      18380.685      132539.26      40.467358      40.467358      80.934715          16040 
    132000   3416.7898      897918.93      935.10037      895972.28      896523.48      901261.04      947.28084      2861.3151     -671.26614      7083.7004      11421.583      18505.283      132642.46      40.477858      40.477858      80.955716          16040 
    133000   3400.4529      899524.08      942.74891      900924.78      899088.32      898559.14     -6813.3318      5126.7786     -3113.7768      7049.8307      11393.213      18443.043      132571.24      40.470612      40.470612      80.941225          16040 
    134000   3395.1335      901987.36      950.39224      901477.47      902078.86      902405.75     -427.13595      3148.3137      1788.2598      7038.8025      11504.484      18543.287      132548.64      40.468313      40.468313      80.936625          16040 
    135000   3381.0316      894600.73      958.03934      892085.69      895911.59      895804.92      2671.1363      3268.0949      2410.2175      7009.5665      11320.045      18329.611      132666.82      40.480336      40.480336      80.960672          16040 
    136000   3417.8926      909595.66      965.68353      911273.59      907079.87      910433.5      -3090.2363     -4137.9576     -878.23044      7085.9869      11575.646      18661.633      132291.15      40.442091      40.442091      80.884181          16040 
    137000   3442.4654      892407.14      973.32475      892461.98      892869.34      891890.1      -3783.8677     -1997.1175      4005.9115      7136.9312      11305.801      18442.732      132841.94      40.498139      40.498139      80.996278          16040 
    138000   3412.7667      903795.08      980.96391      903801.55      905276.45      902307.22      339.13539     -232.71292      1665.1478      7075.3597      11476.552      18551.912      132484.41      40.461774      40.461774      80.923549          16040 
    139000   3409.8763      898929.24      988.60297      899676.41      897319.75      899791.56     -1563.2515      399.9871       2203.8509      7069.3673      11381.69       18451.057      132608.66      40.474419      40.474419      80.948839          16040 
    140000   3414.0897      900279.26      996.23759      899182.72      901157.68      900497.38      779.6131       1335.6936      1631.9441      7078.1026      11484.802      18562.904      132535.4       40.466965      40.466965      80.93393           16040 
    141000   3406.8847      905131.59      1003.8748      906036.48      904614.49      904743.79     -3976.8323     -3335.0476      5649.3471      7063.1652      11520.199      18583.364      132407.9       40.453985      40.453985      80.907969          16040 
    142000   3398.9413      897207.56      1011.516       895283.8       899671.55      896667.34     -1302.4966     -2196.3715      1273.359       7046.6969      11443.658      18490.355      132640.29      40.477637      40.477637      80.955275          16040 
    143000   3409.4491      903995.66      1019.1549      902541.65      904310.95      905134.37      1399.6759     -212.05641     -5460.1709      7068.4818      11557.777      18626.259      132416.45      40.454855      40.454855      80.90971           16040 
    144000   3385.8114      895443.14      1026.7932      898632.74      894601.65      893095.02     -236.70005     -907.98943      2848.0829      7019.476       11364.878      18384.354      132672.62      40.480926      40.480926      80.961853          16040 
    145000   3408.6226      900813.35      1034.4244      901703.72      898960.54      901775.79      4405.3505     -1553.3189      3653.7312      7066.7683      11447.747      18514.516      132548.72      40.46832       40.46832       80.93664           16040 
    146000   3403.0202      902793.61      1042.0536      902042.22      904003.76      902334.84      2936.297       1227.1112      187.80807      7055.1533      11478.084      18533.238      132508.01      40.464177      40.464177      80.928355          16040 
    147000   3408.3086      896031.57      1049.6851      894740.77      895772.61      897581.34     -2490.0302     -3636.1372      892.86874      7066.1171      11398.978      18465.095      132729.77      40.486738      40.486738      80.973476          16040 
    148000   3389.9555      902232.42      1057.3217      900961.63      901800.35      903935.26      782.7106       7171.5548      859.46754      7028.0675      11572.325      18600.393      132539.54      40.467386      40.467386      80.934772          16040 
    149000   3390.4478      896845.27      1064.9598      894362.27      898176.49      897997.06      4392.3528      4895.5772      1030.0598      7029.088       11403.574      18432.662      132671.43      40.480805      40.480805      80.96161           16040 
    150000   3382.2052      902377.84      1072.6055      903138.47      901654.22      902340.81      4121.5229     -1080.3385      3887.08        7011.9996      11610.999      18622.999      132487.85      40.462125      40.462125      80.924251          16040 
    151000   3366.1827      894579.68      1080.251       895656.29      893088         894994.76      712.71339      5608.1145      5592.5238      6978.7816      11365.496      18344.277      132726.22      40.486376      40.486376      80.972753          16040 
    152000   3391.6602      905085.36      1087.9012      904835.88      904379.75      906040.46      4050.9062      2817.6244      2609.2721      7031.6017      11593.695      18625.296      132383.41      40.45149       40.45149       80.90298           16040 
    153000   3412.3265      898447.56      1095.5454      897275.35      900544.89      897522.46      1179.4343      779.97245     -2692.0415      7074.4472      11405.448      18479.895      132575.16      40.471011      40.471011      80.942021          16040 
    154000   3415.7177      897973.36      1103.6257      896783.45      899760.77      897375.84      1334.687       1947.7635      2114.9769      7081.4778      11369.804      18451.282      132647.71      40.478392      40.478392      80.956783          16040 
    155000   3439.6396      902999.77      1111.2743      903240.93      899902.22      905856.16     -2719.5391      4166.9308      576.52856      7131.0727      11518.934      18650.007      132461.85      40.459478      40.459478      80.918957          16040 
    156000   3411.2488      891825.17      1118.9228      892425.75      893198.45      889851.3       4356.8532      3396.4596     -2958.9796      7072.2129      11323.431      18395.644      132758.75      40.489683      40.489683      80.979367          16040 
    157000   3396.0648      904331.9       1126.5674      902798.48      903951.02      906246.19      1032.8325      467.88188      1041.2584      7040.7333      11472.769      18513.502      132449.92      40.458263      40.458263      80.916527          16040 
    158000   3429.419       898740.25      1134.2124      899055.51      897671.74      899493.5       1734.6152     -1335.7385     -5372.2775      7109.8834      11408.165      18518.049      132624.92      40.476074      40.476074      80.952148          16040 
    159000   3400.7711      897475.11      1141.8525      896846.97      900241.42      895336.93      579.07499      4626.4719      2318.6428      7050.4904      11265.099      18315.589      132624.76      40.476057      40.476057      80.952115          16040 
    160000   3420.6259      903804.7       1149.4907      904361.77      902093.36      904958.96      3719.6772      2350.8162     -3868.6119      7091.6536      11487.638      18579.291      132475.92      40.46091       40.46091       80.92182           16040 
    161000   3361.8523      892031.47      1157.1336      892565.65      892967.3       890561.47      2616.5715     -1549.8014     -1987.7597      6969.8038      11324.339      18294.142      132797.26      40.493599      40.493599      80.987197          16040 
    162000   3416.5635      904077.9       1164.7778      905161.2       904106.44      902966.06      2430.1374     -1988.3563     -1386.0227      7083.2312      11499.858      18583.089      132456.7       40.458954      40.458954      80.917908          16040 
    163000   3379.4769      900757.79      1172.414       898173.78      899280.57      904819.03      1203.5871     -1662.888      -3240.3596      7006.3432      11338.086      18344.429      132581.52      40.471659      40.471659      80.943317          16040 
    164000   3398.8882      900004.38      1180.0564      899082.53      901667.33      899263.29      4207.3238     -778.64895      5783.9752      7046.5868      11440.208      18486.795      132599.24      40.473461      40.473461      80.946922          16040 
    165000   3398.3028      901761.92      1187.6942      902395.48      902590.16      900300.12     -3975.4986     -710.67093      4488.1608      7045.3731      11408.28       18453.653      132512.74      40.464659      40.464659      80.929318          16040 
    166000   3440.3232      894134.25      1195.3398      893096.27      894165.8       895140.66     -859.82944     -1065.4783     -880.54393      7132.4899      11392.457      18524.947      132742.54      40.488036      40.488036      80.976073          16040 
    167000   3399.0537      908681.42      1202.9855      907422.07      908986.04      909636.16     -1144.653       2121.651       7885.1422      7046.9299      11524.637      18571.567      132364.52      40.449566      40.449566      80.899131          16040 
    168000   3433.6553      893487.94      1210.6292      893071.49      891938.87      895453.45      1882.8266      1574.7621      1159.4573      7118.666       11309.035      18427.701      132794.88      40.493356      40.493356      80.986713          16040 
    169000   3403.4228      903023.22      1218.2743      901831.15      902300.51      904937.99      2753.5875     -1002.4808     -1548.8765      7055.988       11437.425      18493.413      132488.74      40.462216      40.462216      80.924432          16040 
    170000   3420.9977      897511.29      1225.92        897509.97      898800.49      896223.41     -1146.6397      1473.644       346.71861      7092.4243      11427.498      18519.922      132634.35      40.477033      40.477033      80.954066          16040 
    171000   3392.4973      902767.13      1233.5657      905533.6       903220.93      899546.87      5249.936       282.88375      1853.8769      7033.3372      11371.479      18404.816      132475.15      40.460832      40.460832      80.921664          16040 
    172000   3382.3555      901968.7       1241.2153      902117.11      902957.8       900831.18     -693.27793     -1851.7704      572.08499      7012.3111      11445.07       18457.381      132515.23      40.464912      40.464912      80.929823          16040 
    173000   3397.9484      897669.15      1248.8598      898306.5       898290.48      896410.48     -6272.4614     -6509.6884      213.6039       7044.6385      11450.668      18495.307      132667.07      40.480361      40.480361      80.960722          16040 
    174000   3385.3881      906262.54      1256.5029      906991.64      906121.36      905674.62     -3612.1486     -3474.8184      1170.5986      7018.5982      11526.939      18545.537      132383.91      40.45154       40.45154       80.903081          16040 
    175000   3396.5423      898610.62      1264.1492      898601.77      898022.64      899207.45     -3274.4486      1242.1926      2355.2879      7041.7232      11334.144      18375.867      132656.48      40.479284      40.479284      80.958569          16040 
    176000   3414.9568      904245.46      1271.7904      904497.33      905556.29      902682.77     -1615.3428     -2516.4408     -2004.4921      7079.9002      11483.602      18563.502      132477.01      40.461021      40.461021      80.922043          16040 
    177000   3338.337       897436.71      1279.435       896344.31      897862.17      898103.65     -210.7737      -4528.5341     -2717.3307      6921.0518      11348.239      18269.291      132603.27      40.473871      40.473871      80.947742          16040 
    178000   3405.8188      897455.99      1287.0824      897356.88      900029.56      894981.54     -3218.289       4907.1097     -3658.9754      7060.9554      11417.733      18478.689      132608.24      40.474377      40.474377      80.948755          16040 
    179000   3411.8986      903313.27      1294.729       902085.81      905120.8       902733.19     -1647.4955      3197.5185     -3632.4613      7073.56        11429.68       18503.24       132470.82      40.460391      40.460391      80.920782          16040 
    180000   3431.0193      895790.51      1302.3754      895469.75      897892.29      894009.48     -553.57657     -2728.6886     -5963.2786      7113.2012      11266.363      18379.564      132713.65      40.485099      40.485099      80.970198          16040 
    181000   3404.679       907167.99      1310.0208      906015.41      908187.73      907300.83     -995.35954      3707.9544      5143.0538      7058.5923      11627.495      18686.087      132397.8       40.452956      40.452956      80.905911          16040 
    182000   3395.9716      891892.36      1317.6602      891828.81      891496.4       892351.87      165.45911      166.59247      4441.5825      7040.5401      11262.292      18302.832      132811.57      40.495053      40.495053      80.990106          16040 
    183000   3398.3293      901796.61      1325.2965      903789.76      902568.9       899031.17     -316.76549     -6380.2327      1602.5864      7045.428       11346.916      18392.344      132478.88      40.461212      40.461212      80.922423          16040 
    184000   3427.4624      898746.55      1332.9334      899710.51      899828.06      896701.09      1646.604      -4482.7472     -4021.9234      7105.827       11323.632      18429.459      132632.9       40.476886      40.476886      80.953771          16040 
    185000   3381.431       902384.2       1340.572       900386.22      903556.72      903209.67     -835.04284      284.32268      860.91395      7010.3946      11443.962      18454.357      132511.15      40.464497      40.464497      80.928993          16040 
    186000   3400.2754      899723.93      1348.2077      899235.28      901332.99      898603.52     -166.53696      1984.0389     -1442.26        7049.4626      11386.038      18435.501      132559.98      40.469467      40.469467      80.938934          16040 
    187000   3417.6662      897334.68      1355.8474      897378.43      897510.06      897115.55      271.64049     -1232.2896      2966.0465      7085.5174      11409.058      18494.576      132605.21      40.474069      40.474069      80.948138          16040 
    188000   3386.4663      903824.41      1363.4866      902158.71      903640.07      905674.46      2726.3259     -830.50341      301.83203      7020.8337      11473.234      18494.068      132449.84      40.458255      40.458255      80.916509          16040 
    189000   3395.9727      892511.64      1371.1307      891873.64      893511.02      892150.25     -1316.7031      2143.4271      4816.1603      7040.5423      11288.252      18328.795      132751.71      40.488968      40.488968      80.977936          16040 
    190000   3402.315       908919.11      1378.7782      907420.82      909235.44      910101.07     -2397.0706      2432.0586     -7371.5658      7053.6913      11581.052      18634.744      132396.39      40.452812      40.452812      80.905625          16040 
    191000   3354.956       890578.98      1386.4247      892185.08      890771.9       888779.96     -3936.3754     -5613.4727     -2588.5224      6955.5064      11271.799      18227.305      132712.54      40.484985      40.484985      80.969971          16040 
    192000   3409.1503      902874.29      1394.0703      900804.42      903708.17      904110.29     -246.00044     -359.34207     -100.41489      7067.8622      11445.763      18513.625      132504.19      40.463789      40.463789      80.927577          16040 
    193000   3389.6796      898415.12      1401.7133      897914.51      898630         898700.86      4769.5515     -2114.5148     -3743.1121      7027.4954      11373.684      18401.18       132553.39      40.468796      40.468796      80.937591          16040 
    194000   3397.3011      898158.08      1409.3526      898875.42      898632.72      896966.11     -2217.7603     -2731.6755     -2951.2008      7043.2964      11435.404      18478.701      132596.6       40.473193      40.473193      80.946386          16040 
    195000   3351.6475      902936.69      1416.9945      903194.52      902752.02      902863.52      3520.802       1644.6347      2261.9635      6948.6472      11375.678      18324.325      132466.55      40.459957      40.459957      80.919913          16040 
    196000   3421.8122      895905.28      1424.6348      896306.85      894796.74      896612.25     -1924.4515     -745.98135      1595.5671      7094.1128      11327.32       18421.433      132686.9       40.482378      40.482378      80.964756          16040 
    197000   3369.1585      909656.38      1432.2724      912666.85      908397.11      907905.17     -237.28667      4149.8927      3888.5293      6984.951       11473.797      18458.748      132305.82      40.443585      40.443585      80.88717           16040 
    198000   3377.2779      891829.14      1439.9112      893227.25      891889.7       890370.47      1759.4308      2299.7431     -4565.0694      7001.7841      11383.772      18385.556      132778.9       40.491732      40.491732      80.983464          16040 
    199000   3432.9925      905182.9       1447.5474      903715.41      904546.53      907286.76     -2261.5989      2794.6176     -3351.3047      7117.2919      11420.945      18538.237      132505.87      40.463959      40.463959      80.927918          16040 
    200000   3365.9623      896705.98      1455.191       897292.09      896175.86      896649.99      751.33024     -108.55877     -158.75507      6978.3246      11409.225      18387.549      132665.12      40.480163      40.480163      80.960326          16040 
    201000   3395.8515      901132.92      1462.8242      902349.98      901293.85      899754.93      1738.9077      4074.3694     -453.26466      7040.291       11462.005      18502.296      132539.5       40.467382      40.467382      80.934764          16040 
    202000   3386.1271      901179.89      1470.4586      901967.86      902229.83      899341.97      1387.6031      2862.132       2584.1019      7020.1304      11404.473      18424.604      132558.21      40.469287      40.469287      80.938573          16040 
    203000   3420.4502      898465.28      1478.0959      898828.9       899206.58      897360.37      1443.9569     -3758.6597     -1525.847       7091.2893      11376.873      18468.162      132603.81      40.473926      40.473926      80.947852          16040 
    204000   3372.3864      904397.96      1485.7325      903493.17      905455.52      904245.19     -4888.5214      1209.3392      1186.201       6991.6431      11496.538      18488.181      132459.47      40.459235      40.459235      80.91847           16040 
    205000   3402.2594      891865.84      1493.3652      894256.52      892417.46      888923.53     -199.70638     -2988.3102      979.2411       7053.576       11281.652      18335.228      132802.81      40.494162      40.494162      80.988325          16040 
    206000   3374.0545      905708.65      1500.9984      903782.39      907844.55      905499        -4084.1894     -470.34572     -2716.7301      6995.1016      11366.41       18361.511      132446.08      40.457872      40.457872      80.915745          16040 
    207000   3393.0797      897656.57      1508.6325      897766.98      899522.02      895680.7       404.47511      1671.0895     -3654.6726      7034.5445      11381.097      18415.642      132678.02      40.481475      40.481475      80.96295           16040 
    208000   3405.2944      901419.19      1516.2727      902762.1       901626.58      899868.89      149.45835      582.56772      3602.7503      7059.8682      11358.061      18417.929      132531.54      40.466572      40.466572      80.933144          16040 
    209000   3390.735       898811         1523.9067      900234         898150.64      898048.36     -3293.9466     -2180.5169     -3542.3928      7029.6835      11433.219      18462.902      132602.83      40.473827      40.473827      80.947654          16040 
    210000   3403.0224      897973.8       1531.5408      899673.47      897078.27      897169.65     -337.69607     -753.49079      1512.8874      7055.1578      11288.271      18343.429      132652.45      40.478874      40.478874      80.957748          16040 
    211000   3388.6651      907110.84      1539.1752      907554.31      906881.21      906897         349.27938     -1465.5867     -1042.6856      7025.3923      11544.765      18570.158      132429.51      40.456185      40.456185      80.91237           16040 
    212000   3402.7407      890085.12      1546.8112      890976.9       888084.93      891193.52     -3929.1308      756.10202     -1950.2517      7054.5738      11176.369      18230.943      132809.78      40.494871      40.494871      80.989742          16040 
    213000   3463.9861      902959.74      1554.4481      903713.8       903813.54      901351.89     -1921.5212     -6048.651       4455.3189      7181.548       11403.571      18585.119      132491.53      40.4625        40.4625        80.925             16040 
    214000   3368.7453      898768.54      1562.0868      897029.61      898843.11      900432.9      -1461.5525      983.41591     -729.02322      6984.0944      11439.908      18424.002      132588.81      40.4724        40.4724        80.944799          16040 
    215000   3408.8775      899053.19      1569.7234      898576.81      900437.15      898145.62      284.16243      2768.6708      2022.6363      7067.2966      11392.28       18459.577      132620.41      40.475615      40.475615      80.95123           16040 
    216000   3413.9438      898954.84      1577.3626      899559.86      896977.37      900327.29      1851.2596     -456.73903     -2004.2963      7077.8002      11335.556      18413.356      132553.41      40.468798      40.468798      80.937597          16040 
    217000   3402.1672      896985.99      1585.0027      901372.65      897084.59      892500.72     -1438.7205     -4549.7783     -1097.6775      7053.3848      11298.612      18351.996      132633.72      40.476969      40.476969      80.953938          16040 
    218000   3411.1199      904523.05      1592.6423      906557.79      903648.79      903362.57      1540.831       1109.4091     -686.42552      7071.9456      11490.359      18562.305      132491.7       40.462517      40.462517      80.925033          16040 
    219000   3386.0579      890916.87      1600.285       889802.24      892211.73      890736.65      1475.9258     -6189.2438      1607.9546      7019.987       11209.341      18229.328      132806.45      40.494533      40.494533      80.989066          16040 
    220000   3438.5944      907606.29      1607.9251      907898.12      908619.92      906300.83      109.8674      -3933.3778     -1839.4522      7128.9057      11460.579      18589.484      132378.96      40.451037      40.451037      80.902073          16040 
    221000   3370.8852      897553.58      1615.5598      896633.08      897056.61      898971.04     -722.86216      2160.4274     -144.11782      6988.5308      11382.437      18370.968      132581.3       40.471636      40.471636      80.943271          16040 
    222000   3403.0787      899374.56      1623.1907      899904.52      899115.94      899103.21      101.20894     -1059.5338     -3667.3616      7055.2745      11389.31       18444.585      132594.82      40.473011      40.473011      80.946023          16040 
    223000   3382.4967      901680.59      1630.8246      903487.17      900103.69      901450.9      -393.25083      1016.1053      1332.1981      7012.6038      11402.937      18415.541      132526.93      40.466102      40.466102      80.932205          16040 
    224000   3413.5602      896902.14      1638.4539      894765.57      900160.55      895780.31     -2948.113      -1207.3838     -1192.9077      7077.0048      11408.352      18485.357      132680.78      40.481756      40.481756      80.963511          16040 
    225000   3416.178       903676.6       1646.0903      902986.21      903503.86      904539.74      3886.0504      4647.8956     -113.60473      7082.432       11364.066      18446.498      132468.65      40.46017       40.46017       80.920341          16040 
    226000   3420.9414      895429.59      1653.7225      895812.37      895277.51      895198.9       4260.8992      844.20868      2284.7839      7092.3075      11272.747      18365.055      132709.04      40.48463       40.48463       80.96926           16040 
    227000   3394.035       898968.68      1661.3566      898824.3       898644.02      899437.7       1970.9946     -2562.492      -1746.2171      7036.5252      11286.318      18322.843      132556.22      40.469084      40.469084      80.938168          16040 
    228000   3391.2934      900382.61      1668.9887      903223.92      898034.16      899889.75      4060.4488     -455.59221      973.86677      7030.8411      11499.914      18530.755      132583.67      40.471877      40.471877      80.943754          16040 
    229000   3382.9231      901116.53      1676.6235      904238.97      899371.58      899739.02     -3825.6489      1338.4528      174.68886      7013.4879      11370.356      18383.844      132552.26      40.468681      40.468681      80.937362          16040 
    230000   3456.922       901670.03      1684.255       903315.26      899743.75      901951.06      22.925132      325.33057     -781.17187      7166.9026      11385.602      18552.504      132607.42      40.474294      40.474294      80.948588          16040 
    231000   3389.1278      898685.75      1691.8954      899749.06      899049.21      897258.97      4679.9365      1358.6327     -3548.1929      7026.3514      11367.065      18393.417      132618.25      40.475395      40.475395      80.950791          16040 
    232000   3425.4327      902673.55      1699.5341      903173.74      901230.36      903616.55      740.10496      3904.0939      2032.209       7101.619       11484.214      18585.833      132469.92      40.460299      40.460299      80.920598          16040 
    233000   3384.561       904788.81      1707.1675      904370.79      904050.43      905945.21      1099.952       1507.5785      1793.5214      7016.8835      11458.286      18475.17       132402.77      40.453461      40.453461      80.906923          16040 
    234000   3409.9819      895689.76      1714.8079      896105.17      896538.38      894425.73     -360.01265     -123.77039     -48.912092      7069.5862      11393.868      18463.454      132694.38      40.483139      40.483139      80.966277          16040 
    235000   3412.9186      903573.95      1722.4422      901250.25      901449.82      908021.77     -2372.5629      6425.8814      632.87868      7075.6746      11387.197      18462.871      132471.63      40.460474      40.460474      80.920948          16040 
    236000   3410.2537      897743.12      1730.081       898738.95      899046.93      895443.46      6077.1284      1052.7509     -1384.5851      7070.1497      11421.598      18491.747      132646.45      40.478264      40.478264      80.956529          16040 
    237000   3403.3754      900788.65      1737.7278      900796.18      897860.08      903709.69      685.80675      4087.5543     -827.49487      7055.8897      11350.683      18406.573      132581.57      40.471663      40.471663      80.943326          16040 
    238000   3400.8245      903558.35      1745.3677      901825.81      904908.65      903940.59     -839.66925     -2995.7791      595.21731      7050.6011      11525.994      18576.595      132483.3       40.461661      40.461661      80.923323          16040 
    239000   3412.8707      891022.54      1752.9993      894045.09      888664.57      890357.95      899.00616     -2978.3794     -1363.5551      7075.5754      11195.239      18270.815      132803.5       40.494233      40.494233      80.988466          16040 
    240000   3425.248       905925.55      1760.6387      906141.03      904278.29      907357.34      437.82502      913.07689     -2247.3082      7101.2361      11461.154      18562.39       132461.32      40.459424      40.459424      80.918849          16040 
    241000   3366.4377      901374.84      1768.2726      903339.31      902412.64      898372.55      863.45997     -2118.067      -3018.633       6979.3104      11374.675      18353.985      132555.99      40.46906       40.46906       80.93812           16040 
    242000   3425.8268      897838.48      1775.9089      898385.4       898213.23      896916.81      283.24417     -163.89763      205.50697      7102.4359      11351.719      18454.155      132652.44      40.478873      40.478873      80.957747          16040 
    243000   3404.1901      905316.7       1783.5535      907223.27      905769.55      902957.29     -60.690498     -1390.9164      1318.8099      7057.5788      11482.916      18540.495      132456.45      40.458928      40.458928      80.917857          16040 
    244000   3410.9227      894567.06      1791.183       891938.79      895379.21      896383.18      550.29857     -986.63903     -1574.1936      7071.5368      11288.721      18360.258      132753.56      40.489157      40.489157      80.978313          16040 
    245000   3473.9613      904394.27      1798.8131      903985.59      906148.83      903048.4      -2213.4005      3844.2933     -2717.7704      7202.2285      11404.469      18606.698      132475.81      40.460899      40.460899      80.921798          16040 
    246000   3385.9624      898374.91      1806.4456      895818.54      900043.84      899262.34      327.55165      44.346559      460.59102      7019.789       11313.462      18333.251      132586.8       40.472195      40.472195      80.944391          16040 
    247000   3407.5275      897283.72      1814.0785      897001.27      898086.62      896763.26      410.13358     -2940.5398     -625.60519      7064.4978      11341.836      18406.333      132660.69      40.479713      40.479713      80.959426          16040 
    248000   3369.9231      902796.43      1821.7222      901604.39      903741.37      903043.54      1355.4055      2766.1198      5819.3277      6986.5362      11384.232      18370.768      132522.86      40.465689      40.465689      80.931377          16040 
    249000   3382.2317      896630.14      1829.3628      896325.59      896388.71      897176.12      1089.7812     -8001.2618      702.94617      7012.0545      11331.553      18343.608      132684.61      40.482146      40.482146      80.964291          16040 
    250000   3392.1266      903675.12      1836.9989      904991.34      902953.12      903080.89     -1391.5374     -2099.9241     -1186.4173      7032.5685      11427.311      18459.879      132513.23      40.464709      40.464709      80.929417          16040 
    251000   3403.1599      896951.05      1844.6347      896934.62      896698.67      897219.85      2011.2226     -3317.706      -2271.8865      7055.4429      11337.174      18392.617      132645.29      40.478146      40.478146      80.956291          16040 
    252000   3384.1242      899352.27      1852.2695      900824.47      899976.66      897255.69      1809.4307     -2731.262       4369.5263      7015.978       11320.964      18336.942      132577.49      40.471248      40.471248      80.942497          16040 
    253000   3433.029       903708         1859.9022      904319.21      905428.3       901376.48     -3472.46       -2800.623      -2029.7071      7117.3676      11366.259      18483.627      132504.52      40.463822      40.463822      80.927643          16040 
    254000   3388.8548      894988.29      1867.5442      898359.73      894130.79      892474.33      3175.1213     -6212.9986     -1945.3999      7025.7855      11248.063      18273.848      132682.32      40.481912      40.481912      80.963824          16040 
    255000   3408.671       903726.48      1875.1784      900822.63      904823.57      905533.24     -1760.4927     -1417.6199     -922.65981      7066.8685      11416.795      18483.664      132529.22      40.466336      40.466336      80.932671          16040 
    256000   3368.3607      896338.63      1882.8092      894827.8       897456.52      896731.57      877.4158       3786.8619     -1988.1073      6983.2971      11301.024      18284.321      132677.78      40.481451      40.481451      80.962902          16040 
    257000   3391.6488      905307.3       1890.4451      905855.27      906371.17      903695.45     -226.69904      1872.4237     -1679.1299      7031.578       11480.784      18512.362      132488.06      40.462146      40.462146      80.924292          16040 
    258000   3370.5063      893745.5       1898.0806      895586.28      892421.38      893228.85     -1170.0745     -2312.0955      1603.0903      6987.7453      11254.156      18241.901      132740.66      40.487845      40.487845      80.975689          16040 
    259000   3418.5448      900912.72      1905.7167      902093.35      899472.5       901172.32     -1131.1256     -7514.3102     -2516.5952      7087.3389      11408.682      18496.021      132529.57      40.466372      40.466372      80.932743          16040 
    260000   3411.5992      899637.48      1913.3548      900507.8       899847.38      898557.27      1118.1606     -4554.402       6437.7745      7072.9392      11462.669      18535.609      132609.23      40.474477      40.474477      80.948954          16040 
    261000   3375.2595      898817.13      1920.9915      898708.22      897917.65      899825.52     -2039.7463      2473.5276      3057.1254      6997.5998      11400.276      18397.876      132595.76      40.473107      40.473107      80.946214          16040 
    262000   3466.4986      904445.88      1928.6231      904484.3       905916.51      902936.83     -2686.3485     -3090.0796      3827.2442      7186.757       11444.146      18630.903      132514.14      40.464801      40.464801      80.929602          16040 
    263000   3371.6606      893692.72      1936.2556      892481.37      894108.21      894488.56     -3539.584      -61.1239       -4896.0589      6990.1385      11281.492      18271.63       132722.88      40.486036      40.486036      80.972073          16040 
    264000   3383.8795      902992.15      1943.8899      904097.33      901868.84      903010.27     -3027.4691     -2420.5193      688.41775      7015.4707      11432.073      18447.544      132491.34      40.46248       40.46248       80.92496           16040 
    265000   3382.2618      896037.81      1951.5299      895600.51      898012.86      894500.07     -2061.6884      3505.4007     -582.0661       7012.1169      11397.041      18409.158      132655.29      40.479163      40.479163      80.958326          16040 
    266000   3342.8127      900496.52      1959.174       902001.75      897597.25      901890.55      1719.3696      1022.1071     -4329.7768      6930.3308      11427.86       18358.191      132533.1       40.46673       40.46673       80.933461          16040 
    267000   3406.3921      900461.38      1966.8144      897293.39      901899.2       902191.56      3411.6424      3699.7466      4969.3525      7062.144       11362.332      18424.476      132540.22      40.467456      40.467456      80.934912          16040 
    268000   3382.9246      898426.45      1974.4511      898692.92      897161.23      899425.2      -3026.9405     -1600.5569     -1690.3119      7013.491       11360.356      18373.847      132598.38      40.473374      40.473374      80.946749          16040 
    269000   3383.0894      905811.44      1982.0925      907067.54      904522.35      905844.44     -2748.0049      2586.8813      0.4015216      7013.8328      11464.323      18478.155      132370.98      40.450224      40.450224      80.900448          16040 
    270000   3468.7913      891405.88      1989.7342      892033.61      889124.63      893059.39     -1306.7607      1687.5352     -5716.0641      7191.5102      11123.962      18315.472      132809.19      40.494811      40.494811      80.989621          16040 
    271000   3375.9274      904448.61      1997.3794      904036.89      902782.33      906526.61     -115.11447     -74.271718     -564.47276      6998.9844      11423.588      18422.573      132453.63      40.458641      40.458641      80.917281          16040 
    272000   3410.4502      901268.83      2005.0186      901488.08      901638.34      900680.07     -1428.9917     -370.48385     -1119.8912      7070.5571      11408.295      18478.853      132582.65      40.471773      40.471773      80.943547          16040 
    273000   3346.0922      899018.99      2012.6578      898147.12      899392.01      899517.85      1373.9019      389.95796     -1201.3138      6937.1299      11281.713      18218.843      132599.87      40.473525      40.473525      80.947051          16040 
    274000   3395.7446      905838.15      2020.2987      904948.6       904412.56      908153.27     -2257.7644      3635.1407     -3381.739       7040.0695      11464.72       18504.789      132437.78      40.457027      40.457027      80.914054          16040 
    275000   3432.0985      888499.68      2027.9427      887672.16      890433.49      887393.38     -1283.8432      102.12032      92.974901      7115.4386      11217.091      18332.529      132909.97      40.505052      40.505052      81.010103          16040 
    276000   3416.9454      908700         2035.5812      909626.06      907741.52      908732.41      5170.5859     -3311.3402      1631.8889      7084.0231      11495.684      18579.707      132355.04      40.4486        40.4486        80.8972            16040 
    277000   3368.6025      893367.19      2043.2291      891609.01      894109.08      894383.48     -2269.8153     -1510.7613     -4364.6836      6983.7983      11247.35       18231.148      132708.94      40.484619      40.484619      80.969239          16040 
    278000   3401.015       900653.42      2050.8669      900808.77      900513.67      900637.81      4740.2836      312.10627      3614.6157      7050.9962      11383.727      18434.723      132561.6       40.469632      40.469632      80.939263          16040 
    279000   3406.2596      902339.41      2058.5046      902882.13      902674.78      901461.34     -2097.0759     -2329.6358     -3753.2615      7061.8692      11349.199      18411.068      132552.6       40.468716      40.468716      80.937431          16040 
    280000   3378.0325      900312.81      2066.1462      899441.75      899232.62      902264.05      2017.2033      2632.8103      5492.1205      7003.3488      11291.978      18295.327      132572.82      40.470773      40.470773      80.941546          16040 
    281000   3387.6742      904933.81      2073.7841      902063.31      907343.88      905394.23     -4249.2545      1906.4704      2634.237       7023.338       11539.741      18563.079      132409.52      40.454149      40.454149      80.908298          16040 
    282000   3424.4604      891231.74      2081.4255      891779.75      889479.28      892436.21      518.49693     -3123.2379     -5716.2612      7099.6031      11177.564      18277.167      132841.48      40.498092      40.498092      80.996185          16040 
    283000   3386.6899      905285.8       2089.069       905061.9       905678.77      905116.74     -629.3275       2090.0975     -2228.4991      7021.2972      11420.03       18441.327      132398.85      40.453063      40.453063      80.906125          16040 
    284000   3390.0258      897509.89      2096.7093      896215.07      897804.36      898510.25     -3618.9541      725.16219     -521.70556      7028.2133      11334.361      18362.574      132676.12      40.481281      40.481281      80.962563          16040 
    285000   3389.2162      899299.56      2104.3474      899434.33      900568.29      897896.07     -3292.5131     -3504.3009      4428.8323      7026.5348      11347.764      18374.299      132581.64      40.47167       40.47167       80.94334           16040 
    286000   3427.3778      907264.39      2111.99        906300.44      908532.49      906960.23      116.45258     -815.90625     -1613.3373      7105.6516      11474.232      18579.883      132411.11      40.454311      40.454311      80.908622          16040 
[...]
   3930000   4480.4585      901362.67      7324.9971      907016.03      907227.95      889844.03      56661.983      2477.2607     -4378.3235      9288.9022      22120.483      31409.385      119118.91      39.308877      39.308877      77.090245          16040 
   3931000   4481.0737      907638.79      7332.8562      916267.33      909394.82      897254.21      59699.911      6144.0863     -10002.528      9290.1776      22208.263      31498.441      118960.19      39.291411      39.291411      77.05599           16040 
   3932000   4442.4232      894183.11      7340.7137      897362.99      900062.77      885123.56      58520.908      5804.8189      6955.3585      9210.0472      22063.518      31273.565      119359.58      39.335334      39.335334      77.142129          16040 
   3933000   4414.3769      901889.67      7348.5691      907269.94      909674.38      888724.68      58750.19      -9304.6685      6592.3942      9151.9016      22236.822      31388.723      119153.48      39.31268       39.31268       77.097702          16040 
   3934000   4477.9834      901031.49      7356.4276      906519.81      905625.8       890948.85      60467.824     -1652.4266     -3678.0699      9283.7707      22132.14       31415.911      119104.52      39.307294      39.307294      77.087141          16040 
   3935000   4438.0154      898813.84      7364.2913      902740.11      903860.89      889840.53      56169.178      4329.4321     -4290.0657      9200.9089      22120.292      31321.201      119271.62      39.325669      39.325669      77.123175          16040 
   3936000   4463.7622      898537.45      7372.1544      897369.54      906190.11      892052.7       61422.593      4455.5686     -181.67359      9254.2873      22127.527      31381.814      119162.57      39.31368       39.31368       77.099663          16040 
   3937000   4450.8749      904978.58      7380.0184      909617.46      915489.89      889828.39      59356.357     -10689.297      3041.921       9227.5693      22236.633      31464.202      119015.19      39.297465      39.297465      77.067864          16040 
   3938000   4420.2466      899992.44      7387.8836      908422.19      902779.32      888775.81      59464.057      1023.5883     -186.94513      9164.0707      22176.801      31340.872      119234.29      39.321565      39.321565      77.115127          16040 
   3939000   4479.2963      895033.36      7395.7502      900031.86      895807.43      889260.77      59203.232      8630.6349     -3564.6952      9286.4927      22022.386      31308.879      119290.32      39.327724      39.327724      77.127206          16040 
   3940000   4472.1282      906851.69      7403.6054      912708.64      913869.74      893976.69      60235.089     -5956.4907      11.051348      9271.6317      22206.372      31478.004      118988.67      39.294546      39.294546      77.062139          16040 
   3941000   4399.066       895639.68      7411.4609      902838.18      904425.25      879655.61      59850.543     -3988.0802      2339.5433      9120.1589      22165.772      31285.931      119329.75      39.332056      39.332056      77.135702          16040 
   3942000   4477.5316      904668.61      7419.3185      908523.93      908216.23      897265.67      62964.645      3602.2937     -749.34842      9282.834       22157.482      31440.316      119052.71      39.301594      39.301594      77.075962          16040 
   3943000   4448.0379      899312.73      7427.177       906683.42      906245.44      885009.32      57857.69      -1423.4021      5540.2221      9221.6875      22150.694      31372.381      119173.88      39.314923      39.314923      77.102102          16040 
   3944000   4475.9799      897456.59      7435.0344      905251.67      902152.09      884966         59373.854     -3162.0618      4059.9509      9279.6171      22093.645      31373.262      119170.41      39.314542      39.314542      77.101354          16040 
   3945000   4441.0943      900825.61      7442.8922      908335.05      902194.51      891947.28      60615.62       2205.7483     -3942.2584      9207.292       22149.113      31356.405      119200.19      39.317817      39.317817      77.107776          16040 
   3946000   4475.1202      901970.73      7450.7478      908068.51      902767.82      895075.86      63727.803     -733.04496     -74.463298      9277.8348      22160.051      31437.886      119050.2       39.301318      39.301318      77.075421          16040 
   3947000   4441.8768      902197.93      7458.6092      907965.1       908870.72      889757.98      61905.672      284.4204       4906.7912      9208.9144      22161.65       31370.565      119170.11      39.314509      39.314509      77.101289          16040 
   3948000   4463.7267      897795.71      7466.4663      902464.79      902083.46      888838.89      59478.772     -1931.3349      8675.9461      9254.2137      22105.1        31359.314      119190         39.316696      39.316696      77.105579          16040 
   3949000   4465.8171      897252.89      7474.3279      902011.97      904344.69      885402.01      57590.443     -3746.6872     -1509.4259      9258.5474      22096.298      31354.845      119195.31      39.31728       39.31728       77.106723          16040 
   3950000   4467.0149      904078.54      7482.1877      909530.32      910343.39      892361.91      60318.994      929.60273     -426.62219      9261.0308      22159.378      31420.408      119077.86      39.304361      39.304361      77.081389          16040 
   3951000   4435.388       899489.18      7490.0456      906008.36      902473.22      889985.95      58181.049      1982.8768      5549.6565      9195.4617      22182.728      31378.19       119150.46      39.312348      39.312348      77.09705           16040 
   3952000   4443.2665      897980.97      7497.8992      904446.31      902173.63      887322.96      55942.146     -1162.8308     -1270.2673      9211.7956      22124.253      31336.049      119224.17      39.320452      39.320452      77.112944          16040 
   3953000   4460.7224      901779.3       7505.7529      905565.98      906984.14      892787.77      62876.955      4068.6308     -5623.5612      9247.9851      22145.103      31393.088      119122.28      39.309248      39.309248      77.090972          16040 
   3954000   4419.392       898274.86      7513.6073      899762.39      905166.42      889895.77      57463.482     -3221.1137     -2114.6094      9162.2989      22160.005      31322.303      119246.34      39.32289       39.32289       77.117726          16040 
   3955000   4456.0674      900661.45      7521.4599      908861.7       902445.6       890677.04      62135.881     -2431.3937      1616.1156      9238.3343      22127.897      31366.232      119167.22      39.314191      39.314191      77.100666          16040 
   3956000   4464.1846      904652.71      7529.3131      908977.73      908573.17      896407.25      59487.015      2653.11       -1151.7402      9255.1629      22169.086      31424.249      119063.45      39.302776      39.302776      77.078279          16040 
   3957000   4436.1387      898096.52      7537.1668      901691.14      898139.05      894459.37      63110.614     -2462.3195     -235.46322      9197.0181      22159.986      31357.005      119182.09      39.315826      39.315826      77.103872          16040 
   3958000   4445.1136      905028.17      7545.0259      909718.61      909624.87      895741.04      62312.651     -1319.2386      218.14955      9215.6249      22220.736      31436.361      119039.31      39.30012       39.30012       77.07307           16040 
   3959000   4461.9037      891998.86      7552.8823      897980.09      896643.01      881373.49      60402.474      3421.1435     -3346.4961      9250.4341      22046.367      31296.801      119287.87      39.327455      39.327455      77.126677          16040 
   3960000   4425.2327      906180.77      7560.7391      909827.73      908780.35      899934.24      59238.472      2524.8249     -777.76489      9174.4079      22253.062      31427.47       119055.46      39.301897      39.301897      77.076556          16040 
   3961000   4407.3654      892242.51      7568.5996      897033.42      897849.49      881844.61      59086.936     -4788.4122      1676.7415      9137.3652      22140.301      31277.666      119321.65      39.331166      39.331166      77.133957          16040 
   3962000   4463.4301      897609.29      7576.4543      901427.97      906281.47      885118.43      59532.317      1912.0425      1777.5149      9253.5987      22107.819      31361.418      119170.8       39.314585      39.314585      77.101438          16040 
   3963000   4445.0282      910735.01      7584.311       914011.45      919994.51      898199.08      59742.775     -2348.2509     -5640.4268      9215.4479      22277.876      31493.324      118935.82      39.288728      39.288728      77.050728          16040 
   3964000   4462.9225      891650.88      7592.1703      896018.57      898396.99      880537.09      62253.702      635.68108      6668.6113      9252.5464      22041.096      31293.643      119284.9       39.327128      39.327128      77.126037          16040 
   3965000   4455.0119      903492.8       7600.0283      909429.15      908634.38      892414.86      63464.782      690.44599      3394.4625      9236.146       22186.292      31422.438      119054.35      39.301774      39.301774      77.076314          16040 
   3966000   4442.7074      908282.94      7607.8854      912652.35      909143.02      903053.45      57604.526      4642.8068     -3888.3372      9210.6364      22242.098      31452.734      118998.93      39.295675      39.295675      77.064354          16040 
   3967000   4374.1352      897576.79      7615.7438      902763.7       904160.29      885806.37      60560.627      1551.5823      388.10076      9068.4723      22224.464      31292.937      119282.71      39.326887      39.326887      77.125564          16040 
   3968000   4446.2621      904704.77      7623.6046      910969.56      911285.77      891858.98      60774.303     -6004.13        6449.8356      9218.006       22205.683      31423.689      119048.12      39.301089      39.301089      77.074972          16040 
   3969000   4474.0604      901435.25      7631.4698      900436.66      910842.98      893026.11      60173.77      -2631.9864      69.117003      9275.6376      22108.533      31384.171      119112.88      39.308214      39.308214      77.088945          16040 
   3970000   4453.4773      898524.89      7639.3287      900344.99      904278.99      890950.68      60239.058      6010.0218     -1657.7076      9232.9646      22111.881      31344.846      119182.82      39.315906      39.315906      77.104029          16040 
   3971000   4491.6218      899520.96      7647.1822      906728.94      904774         887059.94      58667.378      3828.3172     -4048.0052      9312.046       22083.23       31395.276      119092.12      39.30593       39.30593       77.084466          16040 
   3972000   4465.7539      895016.61      7655.0369      896010.27      901093.9       887945.67      60082.651     -6341.7723     -1592.023       9258.4165      22059.795      31318.212      119227.33      39.320799      39.320799      77.113626          16040 
   3973000   4447.4401      907454.82      7662.8935      914360.29      911051.51      896952.66      61754.604     -934.45563     -2136.6754      9220.4482      22261.726      31482.174      118934.52      39.288584      39.288584      77.050447          16040 
   3974000   4449.9213      893551.53      7670.752       901317.67      898043.49      881293.44      58839.537      4503.0435     -365.97549      9225.5924      22033.685      31259.278      119331.25      39.332221      39.332221      77.136025          16040 
   3975000   4462.7144      901040.7       7678.6104      906239.27      903180.75      893702.06      62330.517     -2232.4661      6589.4777      9252.115       22142.99       31395.105      119087.57      39.305429      39.305429      77.083483          16040 
   3976000   4440.7833      899519.74      7686.4753      903388.06      903767.55      891403.61      60188.369     -2725.5076     -5160.8768      9206.6474      22143.283      31349.931      119167.29      39.314199      39.314199      77.100681          16040 
   3977000   4463.7539      899749.91      7694.34        908034.28      903333.83      887881.61      57779.752      5371.1787     -3282.88        9254.27        22115.826      31370.096      119130.06      39.310104      39.310104      77.09265           16040 
   3978000   4449.2849      902229.65      7702.2078      909048.35      904532.26      893108.33      58310.875     -508.81277      906.56209      9224.2729      22191.856      31416.129      119047.58      39.301029      39.301029      77.074854          16040 
   3979000   4455.3969      893883.15      7710.0676      895144.67      901143.73      885361.05      56741.09      -5645.4655     -1233.1865      9236.9444      22045.579      31282.524      119284.13      39.327043      39.327043      77.125871          16040 
   3980000   4416.9925      896900.09      7717.9301      900710.99      901419.21      888570.06      57394.778      2097.5752      1197.2086      9157.3241      22135.792      31293.116      119265.01      39.324942      39.324942      77.121749          16040 
   3981000   4469.7642      901652.07      7725.799       906512.62      907579.65      890863.95      63078.789      5273.8676      1835.873       9266.7305      22107.257      31373.988      119119.73      39.308968      39.308968      77.090422          16040 
   3982000   4453.7016      896278.83      7733.6668      902109.97      900716.68      886009.83      59168.602     -5582.9718      973.95259      9233.4295      22085.256      31318.686      119217.33      39.3197        39.3197        77.111471          16040 
   3983000   4428.5936      902424.15      7741.5301      907555.12      911460.69      888256.65      57982.477      390.0498       6219.9704      9181.3756      22189.057      31370.433      119124.57      39.3095        39.3095        77.091466          16040 
   3984000   4476.4308      901003.04      7749.3905      901905.14      908564.85      892539.14      61102.5        5063.514       214.14797      9280.5519      22079.992      31360.544      119141.4       39.311351      39.311351      77.095096          16040 
   3985000   4465.1861      902369.94      7757.2554      912136.5       902402.7       892570.62      57479.132     -228.04798     -6690.6071      9257.2393      22123.772      31381.011      119104.49      39.307292      39.307292      77.087135          16040 
   3986000   4436.5091      895534.76      7765.1211      899553.23      899252.04      887799         56791.976     -1061.4384      3096.3818      9197.7859      22108.145      31305.931      119237.19      39.321884      39.321884      77.115752          16040 
   3987000   4500.0837      904095.68      7772.9866      911075.34      909808.4       891403.29      60939.126     -5560.8892      6517.4709      9329.5892      22089.83       31419.419      119034.09      39.299545      39.299545      77.071942          16040 
   3988000   4453.6266      907652.75      7780.8516      914210.1       912936.21      895811.96      59749.921      1257.9134     -8413.5079      9233.2741      22229.249      31462.523      118958.07      39.291177      39.291177      77.055532          16040 
   3989000   4439.3436      892570.19      7788.7148      893489.43      902013.86      882207.29      62934.85       2360.9225     -694.55966      9203.6625      22025.834      31229.497      119370.62      39.336546      39.336546      77.144506          16040 
   3990000   4469.6052      901028.44      7796.5773      901833.49      907019.77      894232.07      60392.35      -3725.4333     -209.17484      9266.401       22114.943      31381.344      119099.01      39.306688      39.306688      77.085952          16040 
   3991000   4448.1258      900529.14      7804.441       906865.36      910041.9       884680.16      65703.869     -1820.8487      69.577315      9221.8697      22143.392      31365.262      119127.07      39.309775      39.309775      77.092006          16040 
   3992000   4413.1776      894355.93      7812.3042      897519.16      898621.42      886927.21      56518.173      1038.2878     -5963.8467      9149.4151      22123.921      31273.336      119290.14      39.327704      39.327704      77.127167          16040 
   3993000   4470.3682      905939         7820.1805      910750.89      909375.21      897690.91      57325.561     -422.53433      507.09894      9267.9828      22174.191      31442.174      118988.08      39.294481      39.294481      77.062012          16040 
   3994000   4459.6644      896789.97      7828.053       901704.01      898875.07      889790.83      56425.551     -5258.239      -1138.954       9245.7916      22078.096      31323.888      119197.06      39.317472      39.317472      77.1071            16040 
   3995000   4492.3335      894549.5       7835.9209      900614.35      899282.83      883751.32      61727.446      713.40319      6812.0213      9313.5213      21990.697      31304.218      119230.57      39.321156      39.321156      77.114324          16040 
   3996000   4431.8922      902401.08      7843.7855      909677.43      904405.76      893120.04      59502.57      -2030.9042      1122.5718      9188.2143      22176.363      31364.577      119121.93      39.309209      39.309209      77.090896          16040 
   3997000   4408.1083      898469.52      7851.6475      904026.72      900125.89      891255.95      62808.288     -1530.4218     -1002.8884      9138.9053      22178.949      31317.854      119205.14      39.318361      39.318361      77.108843          16040 
   3998000   4483.7404      904835.11      7859.5038      908748.59      911798.43      893958.32      58168.344     -1843.9642     -4554.1323      9295.706       22125.586      31421.292      119019.48      39.297937      39.297937      77.06879           16040 
   3999000   4478.5807      899683.09      7867.3596      904652.76      904353.98      890042.55      60912.416     -3206.7267      1561.3159      9285.009       22109.137      31394.146      119062.62      39.302684      39.302684      77.078099          16040 
   4000000   4425.6512      895495.78      7875.2213      900492.69      899694.77      886299.89      62071.837      1275.6324      3684.6398      9175.2755      22095.123      31270.398      119281.48      39.326752      39.326752      77.125299          16040 
Loop time of 7875.22 on 8 procs for 1000000 steps with 16040 atoms

Performance: 5.486 ns/day, 4.375 hours/ns, 126.981 timesteps/s
61.2% CPU use with 1 MPI tasks x 8 OpenMP threads

MPI task timing breakdown:
Section |  min time  |  avg time  |  max time  |%varavg| %total
---------------------------------------------------------------
Pair    | 7591       | 7591       | 7591       |   0.0 | 96.39
Neigh   | 14.172     | 14.172     | 14.172     |   0.0 |  0.18
Comm    | 41.396     | 41.396     | 41.396     |   0.0 |  0.53
Output  | 1.4099     | 1.4099     | 1.4099     |   0.0 |  0.02
Modify  | 203.05     | 203.05     | 203.05     |   0.0 |  2.58
Other   |            | 24.17      |            |       |  0.31

Nlocal:          16040 ave       16040 max       16040 min
Histogram: 1 0 0 0 0 0 0 0 0 0
Nghost:          15609 ave       15609 max       15609 min
Histogram: 1 0 0 0 0 0 0 0 0 0
Neighs:              0 ave           0 max           0 min
Histogram: 1 0 0 0 0 0 0 0 0 0
FullNghs:  1.93041e+06 ave 1.93041e+06 max 1.93041e+06 min
Histogram: 1 0 0 0 0 0 0 0 0 0

Total # of neighbors = 1930408
Ave neighs/atom = 120.34963
Neighbor list builds = 34784
Dangerous builds = 0
Total wall time: 8:34:53
