
atom_style atomic
units metal
boundary p p p
#atom_modify sort 0 0.0
newton on

read_data data.lammps
Reading data file ...
  orthogonal box = (0 0 0) to (43.790145 43.790145 87.58029)
  1 by 1 by 1 MPI processor grid
  reading atoms ...
  16040 atoms
  read_data CPU = 0.032 seconds
# replicate 10 10 20

### interactions

pair_style flare
pair_coeff * * lmp.flare
Reading potential file lmp.flare with DATE: Thu

# compute unc all flare/std/atom L_inv_lmp.flare sparse_desc_lmp.flare
# compute MaxUnc all reduce max c_unc

mass 1 12.011000
mass 2 28.085000

thermo_style custom step temp press cpu pxx pyy pzz pxy pxz pyz ke pe etotal vol lx ly lz atoms    #c_MaxUnc
thermo 1000
timestep 0.0005
restart 100000 restart_*.dat

#################### Equilibrate at P and T_es ##############################
velocity all create $T 41928459 rot yes dist gaussian
velocity all create 3200 41928459 rot yes dist gaussian
fix mom all momentum 1000 linear 1 1 1 angular

fix 1 all npt temp $T $T $(100.0*dt) iso $P $P $(1000.0*dt)
fix 1 all npt temp 3200 $T $(100.0*dt) iso $P $P $(1000.0*dt)
fix 1 all npt temp 3200 3200 $(100.0*dt) iso $P $P $(1000.0*dt)
fix 1 all npt temp 3200 3200 0.050000000000000002776 iso $P $P $(1000.0*dt)
fix 1 all npt temp 3200 3200 0.050000000000000002776 iso 100000 $P $(1000.0*dt)
fix 1 all npt temp 3200 3200 0.050000000000000002776 iso 100000 100000 $(1000.0*dt)
fix 1 all npt temp 3200 3200 0.050000000000000002776 iso 100000 100000 0.5
dump 1 all custom 1000 1equil.bin id type x y z vx vy vz
run   10000 # report performance
Neighbor list info ...
  update every 1 steps, delay 10 steps, check yes
  max neighbors/atom: 2000, page size: 100000
  master list distance cutoff = 6
  ghost atom cutoff = 6
  binsize = 6, bins = 8 8 15
  1 neighbor lists, perpetual/occasional/extra = 1 0 0
  (1) pair flare/kk, perpetual
      attributes: full, newton on, kokkos_device
      pair build: full/bin/kk/device
      stencil: full/bin/3d
      bin: kk/device
Per MPI rank memory allocation (min/avg/max) = 16.04 | 16.04 | 16.04 Mbytes
   Step          Temp          Press           CPU            Pxx            Pyy            Pzz            Pxy            Pxz            Pyz           KinEng         PotEng         TotEng         Volume           Lx             Ly             Lz          Atoms   
         0   3200           76627.815      0              77285.378      76158.543      76439.524      1157.9361     -232.12173     -781.28355      6634.2511     -2985.8921      3648.359       167941.93      43.790145      43.790145      87.58029           16040 
      1000   3166.3781      97048.506      6.7216955      95976.72       97261.442      97907.355     -1644.416      -971.41548      2572.2193      6564.5461      3958.2012      10522.747      170939.57      44.049151      44.049151      88.098301          16040 
      2000   3233.1925      98721.741      13.390741      97364.047      100036.39      98764.784      473.11763      1110.5804     -2798.3462      6703.066       3917.6329      10620.699      170862.65      44.042542      44.042542      88.085085          16040 
      3000   3180.6382      100667.52      20.06214       101994.25      98943.57       101064.73     -861.3441       59.329292     -2903.6471      6594.1102      3702.2659      10296.376      170447.08      44.006807      44.006807      88.013614          16040 
      4000   3237.7204      99888.006      26.733363      99279.658      99563.638      100820.72      1186.4853      52.006076      1519.0066      6712.4532      3869.3089      10581.762      170718.84      44.030182      44.030182      88.060365          16040 
      5000   3189.1979      99528.979      33.404433      100328.52      98662.345      99596.067     -244.81352      1172.6913     -1467.0933      6611.8561      3736.034       10347.89       170553.06      44.015926      44.015926      88.031852          16040 
      6000   3186.2396      97763.228      40.074583      96757.129      97464.517      99068.038      3376.1519     -2117.5403     -633.8795       6605.7229      3769.7628      10375.486      170793.48      44.036598      44.036598      88.073197          16040 
      7000   3209.9008      95638.904      46.745707      95562.746      96317.356      95036.61       1309.4266     -1821.2203     -1488.8761      6654.7775      3811.8381      10466.616      170948.24      44.049895      44.049895      88.09979           16040 
      8000   3157.9483      95241.619      53.416258      94490.913      95266.501      95967.444     -994.57199     -1564.7848     -1529.4158      6547.0693      3715.4138      10262.483      170803.53      44.037462      44.037462      88.074925          16040 
      9000   3218.838       96319.74       60.086416      97589.402      95653.966      95715.853     -621.9319      -1725.9227     -242.47843      6673.3061      3795.3562      10468.662      171032.87      44.057163      44.057163      88.114326          16040 
     10000   3183.3791      98757.05       66.756049      98699.352      98335.445      99236.352     -2639.2689     -1890.6963     -1316.0924      6599.7926      3749.4263      10349.219      170688.16      44.027544      44.027544      88.055089          16040 
Loop time of 66.7561 on 8 procs for 10000 steps with 16040 atoms

Performance: 6.471 ns/day, 3.709 hours/ns, 149.799 timesteps/s
61.1% CPU use with 1 MPI tasks x 8 OpenMP threads

MPI task timing breakdown:
Section |  min time  |  avg time  |  max time  |%varavg| %total
---------------------------------------------------------------
Pair    | 63.823     | 63.823     | 63.823     |   0.0 | 95.61
Neigh   | 0.083259   | 0.083259   | 0.083259   |   0.0 |  0.12
Comm    | 0.33293    | 0.33293    | 0.33293    |   0.0 |  0.50
Output  | 0.010809   | 0.010809   | 0.010809   |   0.0 |  0.02
Modify  | 2.2569     | 2.2569     | 2.2569     |   0.0 |  3.38
Other   |            | 0.249      |            |       |  0.37

Nlocal:          16040 ave       16040 max       16040 min
Histogram: 1 0 0 0 0 0 0 0 0 0
Nghost:          13660 ave       13660 max       13660 min
Histogram: 1 0 0 0 0 0 0 0 0 0
Neighs:              0 ave           0 max           0 min
Histogram: 1 0 0 0 0 0 0 0 0 0
FullNghs:  1.38284e+06 ave 1.38284e+06 max 1.38284e+06 min
Histogram: 1 0 0 0 0 0 0 0 0 0

Total # of neighbors = 1382842
Ave neighs/atom = 86.212095
Neighbor list builds = 285
Dangerous builds = 0
run  990000
Per MPI rank memory allocation (min/avg/max) = 16.11 | 16.11 | 16.11 Mbytes
   Step          Temp          Press           CPU            Pxx            Pyy            Pzz            Pxy            Pxz            Pyz           KinEng         PotEng         TotEng         Volume           Lx             Ly             Lz          Atoms   
     10000   3183.3791      98757.05       0              98699.352      98335.445      99236.352     -2639.2689     -1890.6963     -1316.0924      6599.7926      3749.4263      10349.219      170688.16      44.027544      44.027544      88.055089          16040 
     11000   3195.1895      98983.547      6.6705723      98432.668      98898.265      99619.709     -477.92471     -9.4575442     -640.14666      6624.2779      3765.6359      10389.914      170708.58      44.0293        44.0293        88.058601          16040 
     12000   3234.2801      98627.123      13.340188      98497.609      99190.375      98193.385     -978.73528      2061.5132     -1489.568       6705.3207      3728.095       10433.416      170744.83      44.032416      44.032416      88.064833          16040 
     13000   3198.5462      98443.528      20.009231      98930.597      97627.742      98772.246     -93.253435     -2482.7781     -331.26957      6631.2371      3711.6885      10342.926      170630.18      44.022559      44.022559      88.045118          16040 
     14000   3183.1346      98587.691      26.680395      97939.661      99018.378      98805.034      619.54423      1313.6698      2050.1838      6599.2857      3853.3905      10452.676      170755.37      44.033322      44.033322      88.066645          16040 
     15000   3176.9804      97130.095      33.350603      97422.98       98061.771      95905.535     -2724.6957      1139.2521     -10.838379      6586.5267      3689.0583      10275.585      170643.01      44.023663      44.023663      88.047325          16040 
     16000   3205.5031      99027.959      40.021567      99316.417      99013.98       98753.48      -1423.2574      1055.7333     -1598.8605      6645.6602      3724.7217      10370.382      170649.77      44.024243      44.024243      88.048487          16040 
     17000   3175.341       99568.429      46.694685      98873.298      99290.432      100541.56     -415.18629      585.0282       882.82463      6583.1279      3729.0972      10312.225      170523.51      44.013384      44.013384      88.026768          16040 
     18000   3204.4802      99137.99       53.365019      98737.175      99413.32       99263.476     -234.12973      199.51214      1300.5315      6643.5394      3724.6655      10368.205      170558.12      44.016361      44.016361      88.032721          16040 
     19000   3178.5066      101050.36      60.036181      102626.09      100179.16      100345.84     -1410.5188     -1030.6732      1673.6244      6589.6908      3775.8946      10365.585      170494.17      44.010859      44.010859      88.021718          16040 
     20000   3223.1496      98977.834      66.709054      99620.157      98601.96       98711.383      218.08835     -1023.5603     -4216.6446      6682.2448      3748.5974      10430.842      170580.3       44.018269      44.018269      88.036539          16040 
     21000   3172.427       101240.25      73.380294      101075.45      100151.71      102493.59     -1500.1108      415.53895     -1222.1267      6577.0866      3757.1703      10334.257      170356.26      43.998989      43.998989      87.997979          16040 
     22000   3171.5181      100783.77      80.051956      100338.41      101117.74      100895.17      819.46253     -1763.4188     -976.75059      6575.2023      3735.2715      10310.474      170479.24      44.009574      44.009574      88.019149          16040 
     23000   3227.1204      96963.607      86.723271      96629.304      97167.752      97093.766      1017.5005     -463.06214      1372.5082      6690.4773      3713.8221      10404.299      170718.33      44.030139      44.030139      88.060278          16040 
     24000   3196.7251      97162.197      93.394643      99091.55       95997.871      96397.169     -1198.6462      120.11833     -338.89086      6627.4615      3738.5445      10366.006      170727.5       44.030927      44.030927      88.061855          16040 
     25000   3177.7807      98981.578      100.06726      98311.675      98557.332      100075.73     -270.37921      601.94389      2217.7536      6588.1859      3699.8554      10288.041      170489.03      44.010417      44.010417      88.020834          16040 
     26000   3213.4739      98899.74       106.73887      99766.155      98324.125      98608.94       1461.2046     -454.42449     -1045.0161      6662.1852      3698.4394      10360.625      170647.46      44.024045      44.024045      88.04809           16040 
     27000   3202.2048      98073.67       113.41118      98639.683      97013.847      98567.481     -1054.2891      37.525031      1499.5464      6638.8222      3763.3585      10402.181      170689.28      44.027641      44.027641      88.055282          16040 
     28000   3204.0242      100704.27      120.08332      100411.62      100658.43      101042.76      1216.1397     -756.00265      215.74665      6642.594       3719.3575      10361.952      170429.19      44.005267      44.005267      88.010535          16040 
     29000   3200.4995      101591.2       126.75599      100403.13      102099.41      102271.05     -1235.744       3555.2128      916.17708      6635.2867      3745.3057      10380.592      170359.14      43.999237      43.999237      87.998474          16040 
     30000   3189.9764      101294.05      133.42781      100804.04      102470.79      100607.32      1555.926       1100.4366      602.96768      6613.4702      3743.7451      10357.215      170350.88      43.998526      43.998526      87.997052          16040 
     31000   3202.0756      100042.09      140.10011      99046.287      100691.83      100388.15      229.68499      187.95619     -652.8681       6638.5542      3715.4278      10353.982      170472.35      44.008982      44.008982      88.017963          16040 
     32000   3203.2719      98303.515      146.77443      98904.381      99287.263      96718.902      515.89618     -591.56928      243.91369      6641.0344      3626.9594      10267.994      170466.52      44.008479      44.008479      88.016959          16040 
     33000   3198.9389      98048.159      153.44441      98367.101      98531.479      97245.897     -285.76234      858.21245      2129.9151      6632.0512      3727.5626      10359.614      170584.54      44.018634      44.018634      88.037268          16040 
     34000   3193.4229      96625.23       160.1169       96540.803      96607.662      96727.224      87.481615      975.20202     -969.19825      6620.6154      3768.2346      10388.85       170795.1       44.036738      44.036738      88.073476          16040 
     35000   3227.9499      98152.058      166.79072      98811.877      97329.098      98315.199      793.57126      1343.6474      916.09886      6692.1969      3620.3486      10312.546      170613.94      44.021162      44.021162      88.042324          16040 
     36000   3210.552       100338.62      173.46284      101790.03      99080.465      100145.35      1880.1083      2098.9321      1433.2719      6656.1275      3654.9047      10311.032      170509.41      44.012171      44.012171      88.024341          16040 
     37000   3204.3438      99636.973      180.13583      100262.89      99405.012      99243.016      1378.8416     -596.89704     -20.819756      6643.2567      3705.0327      10348.289      170659.44      44.025075      44.025075      88.05015           16040 
     38000   3189.476       97497.456      186.80953      97095.702      98807.212      96589.453     -3988.1891     -1687.5279      336.55424      6612.4327      3698.2718      10310.705      170619.77      44.021664      44.021664      88.043328          16040 
     39000   3168.3677      101254.44      193.48105      100945.52      102291.39      100526.4      -40.639639      248.49575     -212.05215      6568.6708      3671.8957      10240.567      170318.08      43.995702      43.995702      87.991404          16040 
     40000   3226.18        98294.308      200.15414      98938.212      97652.466      98292.245      321.77829      549.26853     -195.68592      6688.5276      3670.9825      10359.51       170584.45      44.018626      44.018626      88.037251          16040 
     41000   3169.8269      99581.208      206.82845      99750.779      99727.634      99265.21       539.19684      2866.4875     -253.78993      6571.6961      3653.703       10225.399      170407.3       44.003383      44.003383      88.006766          16040 
     42000   3190.986       98253.746      213.50124      98955.247      97836.179      97969.812     -2800.4549      2310.4208     -21.831388      6615.5632      3759.7536      10375.317      170633.04      44.022805      44.022805      88.04561           16040 
     43000   3182.3666      99582.289      220.17478      99958.012      99941.211      98847.644      124.18135      2661.5125     -1606.0541      6597.6936      3853.0941      10450.788      170556.02      44.016181      44.016181      88.032361          16040 
     44000   3190.3881      101569.15      226.84721      101585.02      101886.67      101235.75     -1745.942      -537.09256      2408.6799      6614.3237      3704.1782      10318.502      170348.84      43.99835       43.99835       87.996701          16040 
     45000   3192.2644      103100.84      233.52002      104154.02      103615.54      101532.95     -895.49464      326.43488      726.84382      6618.2136      3685.2012      10303.415      170245.29      43.989434      43.989434      87.978868          16040 
     46000   3221.0719      99985.879      240.19244      98850.524      101006.2       100100.91      245.14735      71.507289     -951.39733      6677.9374      3716.2948      10394.232      170449.53      44.007018      44.007018      88.014035          16040 
     47000   3171.617       103504.98      246.86606      103117.65      102938.68      104458.59     -1832.8986      1101.3102      778.69095      6575.4074      3716.8282      10292.236      170127.71      43.979304      43.979304      87.958608          16040 
     48000   3227.4282      104188.46      253.53914      105074.89      102774.19      104716.29     -2088.7693     -399.37313      283.44173      6691.1154      3750.6683      10441.784      170161.23      43.982192      43.982192      87.964385          16040 
     49000   3194.4228      101818.35      260.20999      100013.19      102398.16      103043.69     -1520.4678      1988.2446      45.155876      6622.6885      3713.4641      10336.153      170290.33      43.993313      43.993313      87.986626          16040 
     50000   3192.6234      99789.61       266.8822       99684.479      100034.4       99649.948     -121.96288      361.95512      32.502028      6618.9579      3718.4254      10337.383      170534.7       44.014346      44.014346      88.028693          16040 
     51000   3217.5468      98099.306      273.55289      96675.786      98081.162      99540.97      -3105.3029      364.01537      4417.1411      6670.6292      3704.2078      10374.837      170625.64      44.022169      44.022169      88.044337          16040 
     52000   3187.7942      100538.37      280.22646      100852.5       100176.62      100585.98     -58.421297      1190.4819      1384.1055      6608.946       3611.9168      10220.863      170372.27      44.000367      44.000367      88.000735          16040 
     53000   3181.8113      97782.886      286.90058      97978.1        97975.522      97395.037     -414.91567      1168.5731     -1275.5763      6596.5423      3721.5472      10318.089      170519.81      44.013065      44.013065      88.02613           16040 
     54000   3194.0139      99542.797      293.57334      99688.395      99109.767      99830.23      -1846.423       583.22042     -108.7702       6621.8406      3748.2861      10370.127      170556.43      44.016216      44.016216      88.032432          16040 
     55000   3184.5565      99943.723      300.24577      100229.89      99921.822      99679.454     -461.67655     -872.25081      750.80629      6602.2335      3644.4642      10246.698      170396.16      44.002424      44.002424      88.004848          16040 
     56000   3201.7342      97768.055      306.91763      96239.179      98440.604      98624.382     -766.80629     -428.17973      830.56585      6637.8464      3665.9696      10303.816      170567.5       44.017168      44.017168      88.034335          16040 
     57000   3183.7435      98052.914      313.58979      98500.133      97786.247      97872.361      602.35691     -291.24972     -252.32136      6600.548       3622.8084      10223.356      170469.84      44.008765      44.008765      88.017531          16040 
     58000   3209.1578      98129.613      320.26246      97419.057      97679.922      99289.86      -3233.2624     -580.66504      1233.1752      6653.237       3707.6957      10360.933      170697.21      44.028323      44.028323      88.056646          16040 
     59000   3153.669       99432.915      326.93795      98266.374      100223.55      99808.818     -582.5678       227.89835      566.31115      6538.1974      3676.6353      10214.833      170428.69      44.005224      44.005224      88.010447          16040 
     60000   3201.21        98219.641      333.61059      99150.09       97221.488      98287.344     -1169.6885      602.60112     -592.11523      6636.7596      3675.8536      10312.613      170585.07      44.018679      44.018679      88.037359          16040 
     61000   3193.1729      98479.847      340.28341      99139.623      99065.089      97234.829     -3734.0781     -835.60018      2911.3838      6620.0972      3783.433       10403.53       170605.73      44.020457      44.020457      88.040913          16040 
     62000   3203.3076      97491.928      346.95582      97730.038      96587.554      98158.193     -1939.9551      655.87897      1241.6892      6641.1084      3592.8151      10233.924      170490.72      44.010562      44.010562      88.021124          16040 
     63000   3191.655       96336.317      353.62842      95947.519      95887.54       97173.891      427.39202      2950.3335     -161.33923      6616.9502      3738.2965      10355.247      170767.77      44.034388      44.034388      88.068777          16040 
     64000   3190.5164      98844.955      360.30465      99187.334      98894.996      98452.534     -470.57516     -681.10316      1301.477       6614.5897      3600.0787      10214.668      170421.23      44.004582      44.004582      88.009164          16040 
     65000   3195.1414      98133.537      366.97889      98657.291      96720.436      99022.884     -2674.3955      136.3716      -105.04571      6624.1781      3686.9515      10311.13       170578.31      44.018097      44.018097      88.036195          16040 
     66000   3180.4928      99071.482      373.65253      100946.82      97657.368      98610.26       892.33336     -141.46803      761.93991      6593.8087      3675.3499      10269.159      170547.45      44.015443      44.015443      88.030887          16040 
     67000   3176.8851      97635.631      380.32505      98108.851      96899.176      97898.866     -429.00387     -443.91948      279.96263      6586.3292      3639.4554      10225.785      170601.99      44.020135      44.020135      88.04027           16040 
     68000   3186.7404      93035.956      386.99755      93094.996      92804.406      93208.464     -1148.7406      843.4683      -30.261035      6606.7613      3640.5572      10247.319      170949.59      44.050011      44.050011      88.100022          16040 
     69000   3192.6188      96111.15       393.671        97147.787      95410.503      95775.161     -456.87535      1125.6973      1039.9501      6618.9483      3619.0192      10237.968      170693.58      44.028011      44.028011      88.056022          16040 
     70000   3170.8346      95191.789      400.3443       96058.573      95576.936      93939.858      1423.0465     -77.600356      1730.9337      6573.7854      3700.9439      10274.729      170710.42      44.029458      44.029458      88.058917          16040 
     71000   3215.9313      100043.97      407.01972      99684.533      100184.94      100262.45      1733.8073     -1130.199      -1493.4568      6667.28        3644.8337      10312.114      170515.04      44.012654      44.012654      88.025309          16040 
     72000   3192.6399      101751.75      413.69206      102201.75      101841.92      101211.57     -383.99699      8.9304526      135.52195      6618.9921      3681.5466      10300.539      170292.09      43.993464      43.993464      87.986928          16040 
     73000   3230.745       98733.015      420.36525      100001.94      97408.148      98788.954     -771.41647     -377.34167     -2845.5969      6697.9917      3643.6942      10341.686      170466.32      44.008463      44.008463      88.016926          16040 
     74000   3193.0756      101069.47      427.03999      101647.75      101551.17      100009.49      1361.507      -1103.9894     -21.625673      6619.8953      3593.6669      10213.562      170243.42      43.989273      43.989273      87.978545          16040 
     75000   3196.4973      98488.433      433.71352      97345.513      98757.396      99362.39       2042.9563     -278.9969       846.24865      6626.9892      3693.8255      10320.815      170557.29      44.016289      44.016289      88.032578          16040 
     76000   3179.4034      99128.125      440.38647      99036.852      100312.66      98034.864      221.70131     -271.15936      1269.1547      6591.5501      3644.7421      10236.292      170421.69      44.004621      44.004621      88.009243          16040 
     77000   3210.481       97582.722      447.06152      98100.234      98428.283      96219.65       523.68215     -185.15752     -366.45688      6655.9804      3676.8939      10332.874      170641.18      44.023505      44.023505      88.04701           16040 
     78000   3199.2825      98770.855      453.73543      97643.125      98881.278      99788.164      499.04101     -165.99026      2438.8427      6632.7636      3584.6337      10217.397      170445.13      44.006639      44.006639      88.013278          16040 
     79000   3187.1395      97717.06       460.41084      96355.873      98962.902      97832.404     -1571.7184     -244.25495      1466.3917      6607.5887      3686.3982      10293.987      170617.99      44.021511      44.021511      88.043021          16040 
     80000   3199.5119      98650.219      467.08562      98375.599      99036.617      98538.44      -143.48264      1409.3609      4.3715388      6633.2392      3682.1168      10315.356      170577.46      44.018025      44.018025      88.036049          16040 
     81000   3215.9018      99113.892      473.75758      98989.363      98727.26       99625.052      1137.1128      142.42429      993.0765       6667.2187      3698.4822      10365.701      170606.86      44.020554      44.020554      88.041107          16040 
     82000   3203.4917      100013.03      480.43185      100725.64      99109.526      100203.92     -350.77846      934.44321      2695.9272      6641.49        3625.7984      10267.288      170485.49      44.010112      44.010112      88.020224          16040 
     83000   3209.6684      95372.192      487.10872      95477.379      96284.464      94354.731      934.89612     -1552.6128     -2112.5322      6654.2957      3673.1483      10327.444      170775.93      44.03509       44.03509       88.070181          16040 
     84000   3194.7755      98535.677      493.78084      98075.727      99448.136      98083.167     -1553.58       -831.40521     -624.91639      6623.4197      3631.0984      10254.518      170499.39      44.011308      44.011308      88.022616          16040 
     85000   3172.5597      98360.165      500.45559      99656.056      98164.665      97259.775      1007.4577      56.806605      2013.1894      6577.3619      3560.2859      10137.648      170465.8       44.008418      44.008418      88.016835          16040 
     86000   3207.6671      96856.588      507.13051      96489.093      97166.62       96914.051     -234.04313     -737.54752     -549.2819       6650.1465      3644.7457      10294.892      170608.51      44.020695      44.020695      88.041391          16040 
     87000   3144.9976      97798.827      513.80336      97375.123      97438.717      98582.64       1247.6535     -8.7429773      1276.5227      6520.2199      3603.4276      10123.647      170421.27      44.004585      44.004585      88.00917           16040 
     88000   3185.7094      97773.92       520.47834      98509.453      97143.565      97668.741      390.20068     -1623.2665      677.13559      6604.6237      3641.5334      10246.157      170564.03      44.016869      44.016869      88.033739          16040 
     89000   3197.518       99221.586      527.15389      98916.972      100877.14      97870.64       1351.3456     -1565.7165     -945.76781      6629.1053      3630.3012      10259.407      170448.04      44.00689       44.00689       88.013779          16040 
     90000   3193.4279      101232.68      533.82661      102096.75      100206.96      101394.33      861.52925     -354.09932     -782.18107      6620.6258      3600.7857      10221.412      170213.88      43.986728      43.986728      87.973457          16040 
     91000   3175.8644      100597.71      540.50044      100580.35      101432.11      99780.673      1227.3561      1104.6897     -1166.8163      6584.2131      3625.7495      10209.963      170203.61      43.985844      43.985844      87.971687          16040 
     92000   3218.9764      102645.16      547.17476      101949.77      103222.94      102762.76      1000.3468      2393.9811     -942.77312      6673.593       3646.5793      10320.172      170169.03      43.982865      43.982865      87.96573           16040 
     93000   3212.3689      104428.21      553.84932      105144.48      103928.59      104211.55     -808.5267       1163.6238      1360.6565      6659.8943      3626.7034      10286.598      170080.87      43.975268      43.975268      87.950535          16040 
     94000   3214.8658      101338.67      560.52425      101163         101565.45      101287.58     -1235.5952     -2286.6997     -511.41636      6665.071       3617.5343      10282.605      170230.56      43.988165      43.988165      87.97633           16040 
     95000   3177.5432      103693.93      567.19729      104474.01      103482.63      103125.14     -1181.4986      1938.6825      1992.9839      6587.6936      3636.0731      10223.767      170115.81      43.978279      43.978279      87.956557          16040 
     96000   3233.2491      102693.39      573.87022      102006.85      102554.93      103518.38     -1616.1827     -330.64534      1445.4029      6703.1833      3640.1663      10343.35       170283.88      43.992757      43.992757      87.985515          16040 
     97000   3195.5337      100187.66      580.54312      100154.9       100756.27      99651.82      -1406.6448     -417.91092     -238.28335      6624.9916      3693.4531      10318.445      170311.89      43.995169      43.995169      87.990339          16040 
     98000   3169.0787      101411.85      587.21679      100930.43      101105.15      102199.96     -2054.1366     -1349.0711     -2252.1119      6570.145       3541.3186      10111.464      170125.69      43.97913       43.97913       87.95826           16040 
     99000   3195.0443      100441.21      593.89231      100483.71      101334.15      99505.757      2512.007      -277.14991     -2192.1511      6623.9769      3698.0935      10322.07       170324.48      43.996253      43.996253      87.992507          16040 
    100000   3210.0644      102740.8       600.5713       103212.6       102719.66      102290.12      387.0589      -291.57061      553.57392      6655.1166      3652.7471      10307.864      170135.69      43.979992      43.979992      87.959983          16040 
    101000   3224.6631      103657.02      607.24446      103218.93      104072.89      103679.23     -865.96388     -892.52151      58.333335      6685.3827      3580.8083      10266.191      170022.13      43.970204      43.970204      87.940409          16040 
    102000   3235.882       105031.45      613.91716      104288.42      105324.9       105481.03     -84.671476      2732.1966     -1253.4728      6708.6417      3679.4262      10388.068      170058.71      43.973357      43.973357      87.946715          16040 
    103000   3185.4062      103270.05      620.59084      103953.34      103224.83      102631.97      626.16173     -734.65984      1301.9068      6603.9952      3654.0461      10258.041      170059         43.973383      43.973383      87.946765          16040 
    104000   3199.4656      101042.19      627.26375      100255.59      101524.26      101346.72     -15.001806      2174.389      -177.73541      6633.1431      3622.2858      10255.429      170294.24      43.993649      43.993649      87.987298          16040 
    105000   3198.9794      98997.996      633.93727      100095.05      98746.205      98152.735     -310.59378      2284.2272     -975.63639      6632.1351      3696.8536      10328.989      170500.03      44.011363      44.011363      88.022726          16040 
    106000   3206.184       100755.56      640.60871      101698.11      99939.701      100628.86      154.41931     -1781.2921      1918.0387      6647.0717      3610.9531      10258.025      170291.14      43.993383      43.993383      87.986765          16040 
    107000   3182.3953      99159.27       647.28305      97680.783      101230.84      98566.183      1014.4109      1625.0428     -163.82388      6597.753       3680.2284      10277.981      170458.05      44.007751      44.007751      88.015502          16040 
    108000   3217.1636      101302.28      653.95521      101772.27      100873.68      101260.89      135.86421     -378.19271      593.12222      6669.8348      3647.5125      10317.347      170329.14      43.996654      43.996654      87.993308          16040 
    109000   3233.7694      102586.92      660.62855      103305.25      102128.26      102327.25      1124.2997     -1858.8878     -727.83085      6704.2618      3542.1125      10246.374      170109.51      43.977735      43.977735      87.955471          16040 
    110000   3213.2773      104140.56      667.30145      103849.64      104390         104182.06     -457.24279      100.73632     -1899.3511      6661.7776      3690.4104      10352.188      170059.98      43.973467      43.973467      87.946935          16040 
    111000   3218.806       104411.24      673.97507      104146.66      104702.82      104384.22     -65.325637     -29.988061     -1114.9443      6673.2398      3627.0542      10300.294      170053.45      43.972904      43.972904      87.945808          16040 
    112000   3216.9968      100268.08      680.64935      100311         100945.53      99547.697      721.69488      638.29367     -1596.3675      6669.4889      3624.4431      10293.932      170351.89      43.998613      43.998613      87.997226          16040 
    113000   3201.4005      101989.12      687.32529      101075.39      102696.82      102195.17     -780.23283      461.29269     -2031.6355      6637.1545      3633.1201      10270.275      170196.31      43.985214      43.985214      87.970428          16040 
    114000   3216.6844      101796.87      693.99852      100958.57      102881.21      101550.82      2359.4064     -410.82856     -1602.4297      6668.8412      3597.3688      10266.21       170153.45      43.981522      43.981522      87.963045          16040 
    115000   3207.1779      101207.57      700.67173      101756.35      101071.04      100795.32      606.30767     -580.92653     -963.46256      6649.1324      3749.2402      10398.373      170326.29      43.996409      43.996409      87.992818          16040 
    116000   3181.5654      101704.34      707.34606      102287.56      100834.89      101990.59     -133.00562      380.38554     -522.24471      6596.0324      3620.6837      10216.716      170162.73      43.982322      43.982322      87.964644          16040 
    117000   3189.8617      100514.18      714.01859      99998.71       100512.98      101030.84     -274.62922      1038.2569     -1286.2599      6613.2322      3499.5686      10112.801      170192.31      43.98487       43.98487       87.969741          16040 
    118000   3224.6658      99914.91       720.69348      100104.86      99186.198      100453.67     -2233.8639     -457.23697     -698.03521      6685.3883      3650.7846      10336.173      170413.3       44.0039        44.0039        88.0078            16040 
    119000   3190.7215      102879         727.36841      104313.94      101720.03      102603.04     -2589.9212     -774.69064     -118.56419      6615.015       3607.6121      10222.627      170156.05      43.981746      43.981746      87.963492          16040 
    120000   3191.9976      100473.32      734.04124      98840.654      101205.8       101373.5       999.74744      807.50038     -1863.1792      6617.6605      3699.4643      10317.125      170327.11      43.996479      43.996479      87.992958          16040 
    121000   3191.9847      100885.86      740.71436      99825.78       100341.57      102490.22      2146.1472     -326.8533      -768.90302      6617.6338      3649.8196      10267.453      170287.27      43.993049      43.993049      87.986099          16040 
    122000   3251.2262      99143.384      747.3893       98546.668      99826.659      99056.825      725.18403      200.04489     -171.09053      6740.4534      3523.1369      10263.59       170362.38      43.999516      43.999516      87.999032          16040 
    123000   3169.6706      99846.736      754.06276      98901.922      99800.908      100837.38     -330.53639     -79.022433     -815.00619      6571.3722      3717.5781      10288.95       170394.9       44.002316      44.002316      88.004631          16040 
    124000   3179.5764      101463.36      760.7359       102023.78      101873.94      100492.35     -1023.7062      1398.1423     -2089.1148      6591.9088      3687.4331      10279.342      170269.59      43.991527      43.991527      87.983053          16040 
    125000   3227.7564      101486.74      767.41074      101341.06      101320.79      101798.37      2827.3286     -1566.4822     -654.81864      6691.7957      3625.94        10317.736      170288.2       43.993129      43.993129      87.986258          16040 
    126000   3181.1797      101527.17      774.08513      101591.72      102972.99      100016.8      -446.57744      470.29799     -2934.225       6595.2327      3647.3359      10242.569      170291.4       43.993405      43.993405      87.986809          16040 
    127000   3208.9649      97254.858      780.75855      97633.807      97607.676      96523.092      805.54062      309.02909     -758.60052      6652.8371      3692.9336      10345.771      170515.96      44.012734      44.012734      88.025469          16040 
    128000   3195.1027      99599.114      787.43277      99169.386      100820.1       98807.851     -3009.8701      35.958732      548.71853      6624.098       3608.6584      10232.756      170313.96      43.995348      43.995348      87.990695          16040 
    129000   3214.4547      99210.391      794.10491      99474.928      98714.421      99441.824     -1502.859      -1240.2922      1172.9081      6664.2186      3600.8971      10265.116      170370.15      44.000185      44.000185      88.000369          16040 
    130000   3168.9063      99639.918      800.77891      99835.816      100987.27      98096.669     -240.3708       37.819037     -100.4065       6569.7876      3674.2442      10244.032      170364.18      43.999671      43.999671      87.999342          16040 
    131000   3180.0864      100401.32      807.45286      100766.93      99944.19       100492.83      2119.2169      2748.323       1706.736       6592.9662      3580.8137      10173.78       170206.97      43.986133      43.986133      87.972265          16040 
    132000   3184.3676      100274.33      814.12481      99411.464      100071.09      101340.43     -1490.6574     -502.35669     -942.78865      6601.8419      3672.3644      10274.206      170386.98      44.001634      44.001634      88.003268          16040 
    133000   3203.7454      100409.35      820.799        100716.46      99731.756      100779.82      496.57473      1028.9335      96.756106      6642.0162      3603.5777      10245.594      170305.8       43.994645      43.994645      87.98929           16040 
    134000   3229.3705      98788.037      827.47118      99832.46       97705.046      98826.604     -469.64193      2144.8983     -1308.9413      6695.1421      3619.6591      10314.801      170481.24      44.009747      44.009747      88.019493          16040 
    135000   3187.9302      99183.256      834.1451       99312.246      99441.759      98795.764      1271.8538     -2239.9643     -201.77528      6609.2279      3576.451       10185.679      170285.87      43.992928      43.992928      87.985857          16040 
    136000   3188.9038      98295.35       840.81861      98272.938      96987.77       99625.341      1300.9051      2719.2672     -1959.6077      6611.2465      3612.9492      10224.196      170471.14      44.008877      44.008877      88.017755          16040 
    137000   3197.1068      98023.358      847.49407      98290.63       97664.58       98114.863     -2621.1931     -121.16371      38.853834      6628.2529      3605.7719      10234.025      170445.24      44.006649      44.006649      88.013297          16040 
    138000   3205.0361      97859.502      854.16722      98037.024      95649.203      99892.278     -1050.4706      573.76712     -473.35553      6644.6919      3643.5423      10288.234      170427.72      44.00514       44.00514       88.010281          16040 
    139000   3216.7751      97767.517      860.84104      98105.092      97312.71       97884.748     -1499.0423     -931.68105      278.84516      6669.0292      3604.4728      10273.502      170530.27      44.013965      44.013965      88.02793           16040 
    140000   3218.6114      94663.605      867.51513      94842.309      94881.344      94267.162      960.16147      575.56607      962.14986      6672.8362      3532.0697      10204.906      170735.3       44.031597      44.031597      88.063195          16040 
    141000   3192.2236      94373.438      874.18953      94806.865      94172.396      94141.052      1507.2354     -959.33047     -1034.8112      6618.1291      3526.0838      10144.213      170609.37      44.02077       44.02077       88.041539          16040 
    142000   3164.1052      96610.39       880.86373      96796.022      95727.03       97308.117     -232.78171     -2338.1289      1381.0559      6559.8339      3581.6753      10141.509      170517.4       44.012858      44.012858      88.025716          16040 
    143000   3201.5431      97791.786      887.53994      97669.124      97245.184      98461.051     -854.05537     -320.09944     -552.69526      6637.4502      3568.9939      10206.444      170484.42      44.01002       44.01002       88.020041          16040 
    144000   3212.8956      99376.991      894.21449      98465.888      99764.781      99900.305      2326.5305      2192.6825     -1600.0395      6660.9864      3647.9076      10308.894      170355.86      43.998955      43.998955      87.99791           16040 
    145000   3201.2277      102940.83      900.88822      104005.74      102256.18      102560.56     -481.78943      2206.5405     -842.09883      6636.7964      3578.5797      10215.376      170124.4       43.979019      43.979019      87.958038          16040 
    146000   3201.3017      101009.68      907.56224      100715.78      102055.93      100257.33     -761.35467      2598.3012      434.34499      6636.9499      3652.3494      10289.299      170290.28      43.993308      43.993308      87.986616          16040 
    147000   3179.5901      102893.54      914.23643      101291.32      103817         103572.32     -461.60634      623.78184      69.337323      6591.9371      3629.0473      10220.984      170062.45      43.97368       43.97368       87.947359          16040 
    148000   3233.8099      100925.35      920.91179      100865.64      102044.75      99865.644     -1033.6035      1408.7949      1317.2101      6704.346       3560.7537      10265.1        170258.23      43.990548      43.990548      87.981097          16040 
    149000   3211.8735      101828.96      927.58767      102014.44      101099.39      102373.05     -108.41774     -1164.607       148.49688      6658.8673      3617.2147      10276.082      170195.23      43.985121      43.985121      87.970243          16040 
    150000   3193.5494      102886.98      934.26249      103190.72      102976.47      102493.73      979.93383      1703.6878      1055.399       6620.8777      3649.9026      10270.78       170168.4       43.98281       43.98281       87.96562           16040 
    151000   3235.8415      101325.52      940.93781      100257.55      101860.11      101858.91      329.67675      1692.4187     -413.6939       6708.5578      3543.8831      10252.441      170150.69      43.981284      43.981284      87.962568          16040 
    152000   3206.1679      101733.17      947.61254      102854.32      101808.36      100536.83     -854.00057     -1365.6187     -1390.1572      6647.0384      3536.2111      10183.25       170111.25      43.977885      43.977885      87.955771          16040 
    153000   3199.0327      100854.73      954.28814      100465.17      102731.84      99367.18       576.59481     -470.71999      903.09133      6632.2457      3618.5119      10250.758      170229.67      43.988088      43.988088      87.976177          16040 
    154000   3191.565       102788.85      960.96409      102028.16      104047.7       102290.68     -713.78541     -965.23245     -1382.6942      6616.7636      3499.4175      10116.181      169992.99      43.967692      43.967692      87.935385          16040 
    155000   3198.813       103629.1       967.63998      103365.15      103598.42      103923.72      2758.2587      898.04703     -2183.9727      6631.7902      3620.6502      10252.44       170135.74      43.979996      43.979996      87.959993          16040 
    156000   3187.8114      106376.29      974.31589      107059.18      105852.14      106217.56     -1307.6503     -383.24914     -447.5581       6608.9816      3516.3509      10125.333      169714.48      43.943667      43.943667      87.887335          16040 
    157000   3203.7732      101863.68      980.9903       100410.76      102611.41      102568.86      2802.7936     -1594.3146     -1313.2458      6642.0737      3622.4257      10264.499      170226.7       43.987832      43.987832      87.975665          16040 
    158000   3197.9079      101485.65      987.66553      100613.44      101524.39      102319.12      416.83089     -2069.3059     -624.03968      6629.9137      3638.2032      10268.117      170177.19      43.983567      43.983567      87.967134          16040 
    159000   3193.8552      101957.35      994.34052      102694.51      102137.52      101040.02      132.11069     -2947.2293      658.76901      6621.5116      3609.8692      10231.381      170113.53      43.978083      43.978083      87.956165          16040 
    160000   3210.905       102346.32      1001.0162      102318.13      102544.33      102176.51      240.82555      1475.8745      69.751113      6656.8594      3611.3281      10268.187      170116.63      43.978349      43.978349      87.956699          16040 
    161000   3180.848       101778.25      1007.6935      100567.97      102040.01      102726.78      1622.5607     -95.247207      897.56642      6594.5452      3578.1039      10172.649      170028.54      43.970757      43.970757      87.941515          16040 
    162000   3208.1848      99594.819      1014.3674      99193.756      99446.237      100144.46     -1313.2874      1439.8376     -140.29285      6651.2197      3608.461       10259.681      170216.12      43.986921      43.986921      87.973843          16040 
    163000   3205.5952      99266.006      1021.0413      100378.07      98453.506      98966.443     -1548.6884     -128.2298       633.35141      6645.8512      3553.8621      10199.713      170265.81      43.991201      43.991201      87.982401          16040 
    164000   3204.794       100882.22      1027.717       101623.69      101144.58      99878.394     -673.59571     -405.96593      392.41052      6644.19        3430.8029      10074.993      170076.1       43.974856      43.974856      87.949712          16040 
    165000   3208.5091      99715.851      1034.3906      100182.31      100061.86      98903.383      534.10526      439.4173       187.63673      6651.8921      3593.033       10244.925      170263.4       43.990993      43.990993      87.981987          16040 
    166000   3196.6686      101205.56      1041.0653      102830.22      100302.88      100483.58     -1427.4221      1303.0955      422.30544      6627.3444      3489.6966      10117.041      170068.19      43.974175      43.974175      87.94835           16040 
    167000   3213.2725      101306.01      1047.7412      102251.42      102073.87      99592.743      1230.2833      2562.6069     -954.46203      6661.7678      3566.7005      10228.468      170288.36      43.993143      43.993143      87.986286          16040 
    168000   3248.6955      100379.77      1054.4166      100437.02      99766.772      100935.52      1163.3133      1509.1105     -255.17427      6735.2067      3531.5664      10266.773      170260.99      43.990786      43.990786      87.981571          16040 
    169000   3183.5783      102836.57      1061.0908      102408.19      103743.26      102358.27     -658.27901     -1988.6831      645.97917      6600.2055      3562.2587      10162.464      170027.19      43.970641      43.970641      87.941281          16040 
    170000   3219.6076      103160.5       1067.7668      103578.3       104564.21      101338.98     -895.6137      -1479.6018     -369.06609      6674.9016      3533.2778      10208.179      170016.76      43.969742      43.969742      87.939483          16040 
    171000   3207.8383      102341.78      1074.4408      101738.04      103526.42      101760.88     -291.94869      674.45122     -438.22821      6650.5015      3548.5685      10199.07       170101.56      43.977051      43.977051      87.954102          16040 
    172000   3236.8227      101742.89      1081.1152      102314.91      100998.41      101915.37     -422.46284      753.74292     -174.18824      6710.5919      3552.1715      10262.763      170147.45      43.981005      43.981005      87.96201           16040 
    173000   3179.3782      101608.47      1087.7909      101955.08      100917.37      101952.96      1471.1616      1826.4333     -1834.3933      6591.4978      3543.6843      10135.182      170093.4       43.976347      43.976347      87.952694          16040 
    174000   3205.9438      102460.6       1094.4664      101843         101911.94      103626.85      58.297164     -2811.7623     -1411.0407      6646.5739      3589.3774      10235.951      170121.94      43.978807      43.978807      87.957614          16040 
    175000   3218.1963      103595.48      1101.1404      103151.01      103629.12      104006.32     -58.423837     -100.6744      -531.45716      6671.9758      3584.0634      10256.039      170057.85      43.973284      43.973284      87.946567          16040 
    176000   3204.7885      102637.28      1107.8161      101467.11      102945.15      103499.6      -1486.7779     -63.964222      1322.7955      6644.1786      3665.2147      10309.393      170207.56      43.986183      43.986183      87.972367          16040 
    177000   3181.1034      102452.1       1114.4895      103338.09      102511.43      101506.79     -2497.1529      19.47581       1825.5259      6595.0747      3613.4585      10208.533      170116.38      43.978328      43.978328      87.956655          16040 
    178000   3224.9122      100272.42      1121.1651      99817.553      99936.931      101062.78     -1008.3537      1332.2273     -1312.9494      6685.8991      3539.5024      10225.401      170230.65      43.988173      43.988173      87.976345          16040 
    179000   3247.5584      100764.92      1127.8389      101355.62      101003.33      99935.823      349.51129     -614.59586     -1666.6378      6732.8494      3572.4876      10305.337      170278.16      43.992264      43.992264      87.984528          16040 
    180000   3208.0294      102149.8       1134.5132      102402.42      101657.42      102389.55     -508.048        1038.8536      891.88282      6650.8977      3578.5251      10229.423      170108.37      43.977637      43.977637      87.955275          16040 
    181000   3225.0742      104896.95      1141.1885      103995.27      105548.39      105147.19     -1865.6994      1061.6122      514.95767      6686.2349      3623.7686      10310.004      170015.05      43.969594      43.969594      87.939188          16040 
    182000   3210.6326      104556.63      1147.8642      105320.09      103215.58      105134.21     -929.24453     -1788.7944      1238.1038      6656.2947      3550.7655      10207.06       169915.27      43.960991      43.960991      87.921982          16040 
    183000   3174.4571      102632.7       1154.5398      102274.58      103018.24      102605.28      112.17792     -1025.6014      1461.475       6581.2954      3525.9831      10107.279      169979.7       43.966547      43.966547      87.933093          16040 
    184000   3223.8231      100615.72      1161.2151      100681.21      99671.543      101494.4      -1136.3886     -1433.8283     -1587.5473      6683.6412      3569.1734      10252.815      170272.63      43.991788      43.991788      87.983577          16040 
    185000   3186.8247      99727.096      1167.8912      99816.081      99936.14       99429.069     -85.955688     -955.86412      523.68092      6606.9361      3523.6372      10130.573      170236.01      43.988635      43.988635      87.977269          16040 
    186000   3200.5097      96436.657      1174.5663      96032.929      98006.039      95271.002      777.63069      424.1391       1308.3773      6635.3077      3572.855       10208.163      170617.9       44.021503      44.021503      88.043007          16040 
    187000   3171.8827      97904.752      1181.2418      97340.219      98396.013      97978.023     -2649.2356      569.33873     -800.87797      6575.9582      3537.8449      10113.803      170429.12      44.005261      44.005261      88.010523          16040 
    188000   3191.9678      97000.302      1187.9173      96548.172      96724.268      97728.467      391.25213      796.31346     -745.25531      6617.5987      3599.477       10217.076      170514.89      44.012642      44.012642      88.025284          16040 
    189000   3168.7093      97909.183      1194.5926      97830.81       98359.297      97537.442      1885.8421     -1185.2772     -1058.1145      6569.3792      3566.3596      10135.739      170403.08      44.003019      44.003019      88.006039          16040 
    190000   3172.7472      97541.725      1201.2672      97106.357      97421.805      98097.012     -1579.3889      1055.0931      757.84225      6577.7504      3540.9726      10118.723      170409.89      44.003606      44.003606      88.007212          16040 
    191000   3201.2119      96623.921      1207.9435      96990.25       97380.771      95500.743      463.80442     -97.831994      2172.0456      6636.7636      3611.4095      10248.173      170603.2       44.020239      44.020239      88.040477          16040 
    192000   3181.8475      98653.336      1214.6201      99135.935      98475.595      98348.479      3020.7873      1733.8219      755.89483      6596.6172      3537.3435      10133.961      170332.83      43.996972      43.996972      87.993944          16040 
    193000   3236.472       96996.583      1221.2956      96957.519      97352.513      96679.718      627.33422      1302.7608     -493.88501      6709.8649      3511.0911      10220.956      170555.76      44.016158      44.016158      88.032315          16040 
    194000   3179.8366      98614.279      1227.9716      98232.129      98091.993      99518.714      1048.7179     -2263.6107     -775.10097      6592.4482      3552.7008      10145.149      170303.96      43.994486      43.994486      87.988972          16040 
    195000   3236.3628      95069.18       1234.6449      95667.979      93992.805      95546.757      2131.334      -959.68519     -576.48074      6709.6387      3592.3953      10302.034      170759.69      44.033694      44.033694      88.067388          16040 
    196000   3200.0556      96807.933      1241.3199      95652.509      98043.247      96728.044     -1727.6598     -928.63637      723.75371      6634.3664      3506.0818      10140.448      170579.23      44.018177      44.018177      88.036355          16040 
    197000   3192.371       99236.662      1247.9963      99508.694      98101.368      100099.92      2501.0359      336.03897      808.61578      6618.4347      3508.4269      10126.862      170358.7       43.999199      43.999199      87.998398          16040 
    198000   3205.0577      97484.379      1254.6705      97921.779      98017.972      96513.386     -407.57277      1377.9328     -1211.5511      6644.7368      3601.1492      10245.886      170512.73      44.012456      44.012456      88.024912          16040 
    199000   3164.281       99684.617      1261.3456      99208.366      99309.838      100535.65      228.17229      1116.3511     -249.70234      6560.1983      3557.7509      10117.949      170329.18      43.996658      43.996658      87.993315          16040 
    200000   3226.665       98126.652      1268.0281      98524.159      98827.822      97027.973      317.95591     -1083.1197      499.54986      6689.533       3506.9796      10196.513      170390.47      44.001934      44.001934      88.003868          16040 
    201000   3179.1535      99876.304      1274.7023      100272         99773.062      99583.847     -1072.3775      743.36815      2056.9714      6591.032       3495.66        10086.692      170238.12      43.988816      43.988816      87.977631          16040 
    202000   3224.5176      99669.029      1281.3778      100431.92      98249.216      100325.96     -2785.2873      2524.3685      416.40639      6685.0811      3522.452       10207.533      170362.33      43.999512      43.999512      87.999024          16040 
    203000   3202.3975      101550.07      1288.0527      101539.68      101721.82      101388.71      286.84782      6.8951022     -566.45824      6639.2217      3512.2174      10151.439      170089.16      43.975982      43.975982      87.951965          16040 
    204000   3233.2966      99453.159      1294.7268      99601.938      98098.461      100659.08      115.57705     -653.80989     -2487.4931      6703.2816      3552.4206      10255.702      170400.08      44.002761      44.002761      88.005523          16040 
    205000   3169.0862      99636.766      1301.4019      99300.144      100236.48      99373.674     -863.52205     -1219.5927      1448.5306      6570.1604      3607.2937      10177.454      170321.25      43.995975      43.995975      87.99195           16040 
    206000   3208.2286      96444.971      1308.0769      96312.002      96273.768      96749.142     -4.7437666     -2524.58       -384.77552      6651.3106      3542.5892      10193.9        170474.09      44.009131      44.009131      88.018262          16040 
    207000   3193.3741      97824.068      1314.7506      97248.094      97926.4        98297.708      9.2756494     -646.72697     -6.3305355      6620.5143      3515.325       10135.839      170386.53      44.001595      44.001595      88.00319           16040 
    208000   3219.8959      98715.448      1321.426       97401.29       97937.607      100807.45      1820.0313     -105.23274     -777.0406       6675.4992      3680.5618      10356.061      170444.04      44.006545      44.006545      88.013091          16040 
    209000   3166.3694      98754.978      1328.1014      98681.901      98486.75       99096.282      647.49299      1233.7215      1385.1097      6564.5279      3624.4672      10188.995      170331.08      43.996821      43.996821      87.993643          16040 
    210000   3162.7562      101353.01      1334.7765      102528.74      100195.45      101334.86     -1201.9681     -1632.7765     -1038.9486      6557.0371      3500.7188      10057.756      170069.91      43.974323      43.974323      87.948647          16040 
    211000   3227.654       98427.681      1341.4519      98913.837      97200.26       99168.945      1608.5041      1672.3931     -1095.7235      6691.5834      3563.9012      10255.485      170316.9       43.995601      43.995601      87.991202          16040 
    212000   3208.2544      102970.83      1348.1265      103505.78      103886.37      101520.33     -2013.6331     -1388.4749      1007.1163      6651.3642      3531.3265      10182.691      170005.28      43.968752      43.968752      87.937504          16040 
    213000   3200.3225      105194.66      1354.8         105862.92      104964.5       104756.56     -523.60712      267.62376     -381.00056      6634.9197      3647.7174      10282.637      169845.29      43.954955      43.954955      87.90991           16040 
    214000   3213.2326      106133.97      1361.4732      106179.71      105803.53      106418.67      101.95145     -194.23023     -999.83018      6661.685       3562.6618      10224.347      169812.81      43.952153      43.952153      87.904305          16040 
    215000   3194.7403      102961.44      1368.1504      102902.63      102145.25      103836.45     -103.63345      8.8870038      940.81238      6623.3466      3565.8906      10189.237      169914.81      43.960951      43.960951      87.921902          16040 
    216000   3186.4299      101698.83      1374.8248      100356.21      101903.23      102837.07      1011.2631      707.45417      75.029928      6606.1174      3623.7565      10229.874      170208.13      43.986233      43.986233      87.972466          16040 
    217000   3180.2943      102733.38      1381.5002      101829.12      103542.71      102828.31     -1192.4685     -929.31245      178.18214      6593.3972      3667.5185      10260.916      170087.66      43.975853      43.975853      87.951706          16040 
    218000   3246.2094      104995.08      1388.1745      105357.03      104208.08      105420.12      5.5451363      228.45182      789.73288      6730.0527      3650.732       10380.785      169989.74      43.967413      43.967413      87.934825          16040 
    219000   3187.3505      104055.84      1394.8477      103569.03      105088.39      103510.11     -363.21135     -727.53437      1399.6579      6608.0261      3594.7259      10202.752      169918.36      43.961257      43.961257      87.922515          16040 
    220000   3228.943       104273.06      1401.524       103219.85      104294.94      105304.38     -349.32564     -1118.8508      371.83676      6694.2559      3557.4596      10251.716      169889.94      43.958806      43.958806      87.917613          16040 
    221000   3194.3954      103567.46      1408.2006      101556.16      103720.99      105425.25     -1772.8697      695.97427     -185.24239      6622.6315      3584.5998      10207.231      170026.45      43.970577      43.970577      87.941154          16040 
    222000   3179.8126      101298.02      1414.8765      99743.477      102574.4       101576.18     -1048.3555      840.80193     -381.58342      6592.3985      3675.3607      10267.759      170263.05      43.990963      43.990963      87.981926          16040 
    223000   3212.0629      104401.35      1421.5507      104705.18      104430.15      104068.73     -2338.9588     -976.97516      594.48479      6659.2599      3531.1496      10190.41       169960.7       43.964908      43.964908      87.929816          16040 
    224000   3205.236       102321.62      1428.2249      101362.16      103035.01      102567.7      -20.025373      1647.5749      780.72213      6645.1063      3624.0272      10269.134      170242.94      43.989231      43.989231      87.978462          16040 
    225000   3180.2522      103189.86      1434.9013      103498.46      102708.33      103362.79     -366.90598      1074.6301     -329.27564      6593.3099      3508.959       10102.269      169934.06      43.962612      43.962612      87.925223          16040 
    226000   3180.5715      99698.154      1441.5761      100131.75      98769.762      100192.95      1294.5657     -521.80584      1394.0054      6593.9718      3586.5747      10180.547      170246.56      43.989543      43.989543      87.979086          16040 
    227000   3192.3109      97929.495      1448.2498      98646.698      97953.325      97188.462     -509.36978     -969.5541      -711.38513      6618.3101      3576.3306      10194.641      170403.85      44.003086      44.003086      88.006172          16040 
    228000   3207.1101      96320.258      1454.9256      96008.792      95594.75       97357.232     -217.00272      1250.3376      314.47243      6648.9919      3507.0666      10156.058      170522.77      44.01332       44.01332       88.026639          16040 
    229000   3240.4233      95460.093      1461.6012      96733.268      93488.518      96158.492     -1231.9918     -1328.9751      1028.8787      6718.0568      3507.449       10225.506      170576.34      44.017928      44.017928      88.035857          16040 
    230000   3237.2609      97216.143      1468.2756      97324.331      97735.6        96588.499      1422.4277      742.93076      463.48223      6711.5005      3491.4243      10202.925      170446.68      44.006773      44.006773      88.013546          16040 
    231000   3199.0375      97363.097      1474.9511      96592.231      97718.532      97778.529      704.46764      753.01663      565.35757      6632.2556      3584.7474      10217.003      170498.96      44.011272      44.011272      88.022543          16040 
    232000   3221.4591      97828.528      1481.6254      98028.985      96702.222      98754.377     -1500.6733     -658.40111      819.65081      6678.7402      3616.0231      10294.763      170535.08      44.014379      44.014379      88.028758          16040 
    233000   3171.8306      99083.557      1488.3003      98594.78       99569.247      99086.645     -1632.99        121.05         742.77143      6575.8503      3536.2811      10112.131      170326.49      43.996426      43.996426      87.992853          16040 
    234000   3196.0424      98131.928      1494.9775      98799.488      97789.758      97806.537     -1186.8816      1923.1685     -182.11853      6626.0461      3573.8544      10199.901      170373.6       44.000482      44.000482      88.000965          16040 
    235000   3187.5349      100065.33      1501.6528      101091.8       98763.353      100340.84      2572.1025      1451.3555      2125.8947      6608.4083      3510.0836      10118.492      170195.63      43.985156      43.985156      87.970311          16040 
    236000   3201.7047      100512.49      1508.3272      101798.82      100006.33      99732.327      1211.7339     -375.84105      364.17172      6637.7853      3550.194       10187.979      170168.98      43.98286       43.98286       87.965721          16040 
    237000   3202.8435      100269.73      1515.0028      97755.956      100975.69      102077.55      298.13809      690.06873      2031.8498      6640.1462      3551.8368      10191.983      170214.12      43.986749      43.986749      87.973497          16040 
    238000   3182.9051      98527.742      1521.6772      98207.47       99288.948      98086.809     -400.69546     -693.6908      -2171.9531      6598.8099      3661.1722      10259.982      170379.51      44.000991      44.000991      88.001982          16040 
    239000   3188.2604      101892.12      1528.3513      102012.49      101483.11      102180.77      1897.3319     -697.82598     -76.980242      6609.9126      3540.173       10150.086      170048.77      43.972501      43.972501      87.945002          16040 
    240000   3211.6856      99030.441      1535.027       98989.021      98404.79       99697.513      1530.2908      1066.0653      823.46261      6658.4777      3556.5465      10215.024      170297.47      43.993927      43.993927      87.987854          16040 
    241000   3165.0969      99341.107      1541.703       100330.83      97916.772      99775.714      377.21271      928.20556      169.86135      6561.8898      3551.3523      10113.242      170310.28      43.99503       43.99503       87.990061          16040 
    242000   3180.0054      97971.451      1548.3774      97149.755      99587.411      97177.187      12.323317     -586.6724       364.1876       6592.7982      3582.9818      10175.78       170447.63      44.006854      44.006854      88.013708          16040 
    243000   3165.9999      92403.847      1555.0526      92378.614      93545.654      91287.273     -848.47673      1803.034       104.35189      6563.762       3534.9394      10098.701      170837.92      44.040417      44.040417      88.080835          16040 
    244000   3209.2296      95311.349      1561.7283      94211.639      95455.862      96266.546      213.58111     -114.42287     -420.49823      6653.3859      3544.7402      10198.126      170620.95      44.021765      44.021765      88.04353           16040 
    245000   3197.8972      97894.72       1568.4022      97658.227      98625.249      97400.683     -495.73128     -197.61507      366.06029      6629.8916      3480.6111      10110.503      170368.28      44.000024      44.000024      88.000048          16040 
    246000   3194.067       96064.203      1575.0785      94882.451      96746.269      96563.888      58.791261      1017.0763      906.04392      6621.9507      3623.2246      10245.175      170572.59      44.017606      44.017606      88.035212          16040 
    247000   3204.9615      97597.573      1581.7545      97573.112      96655.085      98564.521     -968.85112     -523.21431      1168.8865      6644.5374      3522.701       10167.238      170397.83      44.002568      44.002568      88.005135          16040 
    248000   3205.5086      99150.915      1588.4289      98402.962      98589.172      100460.61      136.83294     -681.50354      584.46532      6645.6715      3561.9279      10207.599      170344.15      43.997946      43.997946      87.995893          16040 
    249000   3188.2788      100886.9       1595.1038      100605.16      100111.53      101944.01      1323.296       714.15671     -917.14375      6609.9507      3489.9156      10099.866      170123.9       43.978976      43.978976      87.957951          16040 
    250000   3240.9518      98689.124      1601.7798      97933.779      98419.776      99713.818     -966.13043      747.99955     -52.557776      6719.1524      3529.5206      10248.673      170449.09      44.00698       44.00698       88.013959          16040 
    251000   3197.4864      99441.207      1608.454       98419.017      99700.496      100204.11      2159.9413      187.23185     -97.24326       6629.0399      3501.9015      10130.941      170333.24      43.997008      43.997008      87.994016          16040 
    252000   3217.2513      97890.931      1615.1302      97327.767      97943.536      98401.489     -1137.1315     -952.62695      1557.168       6670.0166      3538.0034      10208.02       170416.12      44.004142      44.004142      88.008285          16040 
    253000   3212.1602      95725.379      1621.8047      96568.932      95049.511      95557.694     -925.25315     -1393.0902     -658.88394      6659.4616      3592.5906      10252.052      170647.53      44.024051      44.024051      88.048102          16040 
    254000   3188.7804      97689.183      1628.4797      96585.827      99268.679      97213.043     -1342.0614     -1231.3241      1126.9874      6610.9905      3530.7563      10141.747      170465.58      44.008399      44.008399      88.016798          16040 
    255000   3223.0809      97389.406      1635.1551      98060.524      97195.743      96911.95      -876.1284      -580.17784      913.90512      6682.1026      3505.2653      10187.368      170508.55      44.012096      44.012096      88.024193          16040 
    256000   3184.1499      96303.687      1641.831       96298.558      96922.824      95689.679     -196.43834     -741.34046     -796.5093       6601.3907      3540.9538      10142.344      170641.56      44.023538      44.023538      88.047075          16040 
    257000   3200.1629      95487.362      1648.5061      95164.241      95998.928      95298.918      799.58215     -3956.939      -176.8675       6634.5889      3470.269       10104.858      170494.05      44.010849      44.010849      88.021698          16040 
    258000   3236.2814      97573.874      1655.1819      97916.321      96330.55       98474.75      -1044.9555     -112.38978      767.15345      6709.4698      3564.1053      10273.575      170399.29      44.002694      44.002694      88.005387          16040 
    259000   3190.9315      100137.02      1661.8572      100933.68      99980.102      99497.278      1180.7898     -246.77689      312.37886      6615.4503      3549.3705      10164.821      170208.11      43.986231      43.986231      87.972462          16040 
    260000   3185.9126      100140.92      1668.5332      98605.327      100940.82      100876.62      1716.9616      1579.8671     -974.98858      6605.045       3583.5447      10188.59       170240.66      43.989035      43.989035      87.97807           16040 
    261000   3169.3068      98583.53       1675.2095      97719.463      100229.9       97801.225      637.71452      2996.589      -2204.3747      6570.6179      3575.8102      10146.428      170357.41      43.999088      43.999088      87.998177          16040 
    262000   3207.0152      96795.745      1681.8841      98360.949      95128.827      96897.458     -953.91247     -648.64164     -508.12838      6648.7951      3609.8387      10258.634      170578.83      44.018143      44.018143      88.036286          16040 
    263000   3223.401       96555.4        1688.5586      95098.659      97582.861      96984.68       698.36008      1422.3643      1051.8679      6682.766       3537.1592      10219.925      170514.46      44.012605      44.012605      88.02521           16040 
    264000   3194.244       98175.851      1695.2363      97785.564      97867.9        98874.087      1597.8991     -1414.1751      1995.2689      6622.3177      3505.1184      10127.436      170342.43      43.997798      43.997798      87.995597          16040 
    265000   3205.8615      97471.518      1701.9114      97891.554      97182.279      97340.722      391.43808      1028.076       177.97196      6646.4032      3522.891       10169.294      170449.55      44.007019      44.007019      88.014038          16040 
    266000   3177.5806      98253.879      1708.5874      97562.087      99855.178      97344.372     -1561.2973     -178.68239      2003.4358      6587.7711      3511.4646      10099.236      170322.16      43.996053      43.996053      87.992106          16040 
    267000   3183.3122      94826.868      1715.2628      95958.804      93579.911      94941.887      349.24067     -1590.0324     -215.2766       6599.654       3545.038       10144.692      170605.47      44.020434      44.020434      88.040868          16040 
    268000   3173.3501      95658.825      1721.9376      94469.046      96585.433      95921.997      1683.005      -687.51194     -2079.1809      6579.0003      3500.283       10079.283      170501.37      44.011478      44.011478      88.022957          16040 
    269000   3190.8141      98857.085      1728.6124      98575.686      99031.738      98963.83      -1403.4576     -1372.7288     -69.436341      6615.2068      3539.288       10154.495      170283.07      43.992687      43.992687      87.985375          16040 
    270000   3207.3987      99199.66       1735.2899      99829.888      99088.823      98680.268     -1890.8353     -442.50082     -76.165071      6649.5902      3512.3066      10161.897      170206.89      43.986126      43.986126      87.972252          16040 
    271000   3235.3649      100014.88      1741.9656      99129.909      100660.92      100253.8      -2141.8176      1013.33       -315.69814      6707.5698      3659.2533      10366.823      170358.78      43.999207      43.999207      87.998413          16040 
    272000   3191.3416      98574.399      1748.6393      97561.901      99861.98       98299.315      2329.638      -589.77818      770.93492      6616.3005      3525.9338      10142.234      170261.42      43.990823      43.990823      87.981645          16040 
    273000   3186.8324      97683.449      1755.3151      97727.775      97921.091      97401.481     -444.6494       1117.2296     -432.72205      6606.952       3578.365       10185.317      170405.71      44.003246      44.003246      88.006492          16040 
    274000   3207.7986      99782.475      1761.9911      99148.972      99572.717      100625.74      736.70463     -1288.0481     -91.824408      6650.4192      3549.9109      10200.33       170232.65      43.988345      43.988345      87.97669           16040 
    275000   3203.5768      101558.6       1768.664       100630.09      101074.81      102970.92     -87.14285      -389.1406      -234.24273      6641.6665      3500.7839      10142.45       170083.08      43.975459      43.975459      87.950917          16040 
    276000   3196.7703      99581.558      1775.3402      99554.546      100064.68      99125.451      4133.6299      451.84223     -1620.2922      6627.5553      3569.4264      10196.982      170235.38      43.98858       43.98858       87.977161          16040 
    277000   3211.4995      96977.492      1782.0151      98182.018      96230.786      96519.673      1433.1856     -314.72105     -1009.2301      6658.0919      3575.2163      10233.308      170500.63      44.011415      44.011415      88.022831          16040 
    278000   3189.5224      95031.094      1788.691       94738.97       95641.436      94712.876     -1230.4542     -566.35465     -1358.9769      6612.5289      3545.5279      10158.057      170628.27      44.022395      44.022395      88.04479           16040 
    279000   3222.1173      97461.649      1795.3668      98292.592      96833.064      97259.29       295.37373      310.1589      -1750.1424      6680.1047      3573.2628      10253.367      170555.04      44.016096      44.016096      88.032192          16040 
    280000   3191.4435      99155.408      1802.0437      98595.178      98827.486      100043.56      58.939359      2163.0612      2209.4606      6616.5117      3527.3207      10143.832      170243.76      43.989302      43.989302      87.978603          16040 
    281000   3232.4943      99079.661      1808.7197      99709.85       98671.834      98857.299     -1728.659       1073.7182      2071.3632      6701.6184      3459.118       10160.736      170236.48      43.988675      43.988675      87.97735           16040 
    282000   3212.8861      98833.997      1815.3962      99449.282      99533.629      97519.078     -3619.904       9.2591402     -6.286096       6660.9667      3534.3932      10195.36       170289.54      43.993245      43.993245      87.98649           16040 
    283000   3198.6143      100689.53      1822.0737      100564.25      101331.17      100173.16     -3083.5328      507.84478      1498.8144      6631.3782      3542.8007      10174.179      170160.44      43.982124      43.982124      87.964248          16040 
    284000   3185.3815      99207.956      1828.7488      99617.047      98845.362      99161.459      1403.0922      1988.9501      152.66424      6603.944       3601.8096      10205.754      170274.19      43.991923      43.991923      87.983845          16040 
    285000   3194.2137      99874.23       1835.4265      100252.08      99168.215      100202.4       701.92173      831.22052     -623.61799      6622.2549      3651.1339      10273.389      170240.26      43.989         43.989         87.978             16040 
    286000   3186.2046      100540.43      1842.102       101404.03      100239.83      99977.419      394.88145     -635.38021      688.91074      6605.6503      3554.513       10160.163      170162.6       43.982311      43.982311      87.964621          16040 
[...]
   3930000   3133.6186      101792.1       6864.6951      90797.091      94391.818      120187.4       2881.6548      1334.5727     -3465.6776      6496.6288      7518.6316      14015.26       179312.62      44.458574      44.458574      90.719325          16040 
   3931000   3151.9753      100320.13      6872.0388      88094.108      92699.909      120166.37      454.08981     -2049.1403      3834.3661      6534.6861      7466.2843      14000.97       179518         44.475541      44.475541      90.753947          16040 
   3932000   3152.6689      101935.66      6879.3862      86954.394      97961.096      120891.48     -505.29745      2454.6091      559.33831      6536.1242      7485.1824      14021.307      179194.4       44.448801      44.448801      90.699383          16040 
   3933000   3133.4218      98473.598      6886.7332      86955.98       88682.989      119781.82      1240.5904      2613.7516     -3935.4567      6496.221       7502.1211      13998.342      179560.25      44.47903       44.47903       90.761065          16040 
   3934000   3132.2953      100797.82      6894.0816      88821.636      94933.225      118638.61     -1135.5304     -1023.4756      3193.6427      6493.8855      7502.0066      13995.892      179593.1       44.481742      44.481742      90.766601          16040 
   3935000   3116.3968      96514.455      6901.4341      82755.913      86557.578      120229.87     -570.94704      142.92936     -2179.8179      6460.9247      7520.7233      13981.648      179800.74      44.498878      44.498878      90.801567          16040 
   3936000   3143.4813      101644.3       6908.7836      89425.161      93866.829      121640.9       405.80694     -784.2502       171.80891      6517.0764      7485.8904      14002.967      179448.59      44.469808      44.469808      90.742249          16040 
   3937000   3126.984       102495.84      6916.1398      89050.051      97605.535      120831.93      1752.3164      1239.5896      340.58841      6482.874       7530.64        14013.514      179279.2       44.455812      44.455812      90.713688          16040 
   3938000   3131.6604      102622.67      6923.4914      89394.474      93907.728      124565.81      1350.3079     -1008.8086      1446.1318      6492.5691      7501.2263      13993.795      179590.53      44.48153       44.48153       90.766168          16040 
   3939000   3127.0853      102266.38      6930.8473      90168.04       95098.53       121532.58     -156.7627      -2332.494       3646.0562      6483.0842      7526.4398      14009.524      179346.65      44.461386      44.461386      90.725063          16040 
   3940000   3119.0187      98033.68       6938.2004      86900.824      92813.024      114387.19     -773.50321     -1040.0351      3146.4967      6466.3603      7544.3622      14010.723      179323.65      44.459485      44.459485      90.721184          16040 
   3941000   3133.2913      101285.07      6945.5519      89362.467      91816.675      122676.08      286.10124     -958.25685     -2113.3731      6495.9504      7522.5748      14018.525      179199.32      44.449208      44.449208      90.700213          16040 
   3942000   3128.494       100578.7       6952.9078      89314.935      93233.852      119187.32      646.98189     -4255.2978      1110.8442      6486.0046      7514.216       14000.221      179498.38      44.473921      44.473921      90.750641          16040 
   3943000   3140.3493      101462.27      6960.2597      92541.875      92124.375      119720.55     -898.314        3207.7127      1811.0895      6510.5831      7501.5073      14012.09       179308.83      44.45826       44.45826       90.718684          16040 
   3944000   3124.7759      97271.083      6967.6159      84578.083      90947.408      116287.76      446.22217      567.62218     -1308.8929      6478.2961      7510.9297      13989.226      179678.59      44.488799      44.488799      90.781             16040 
   3945000   3114.4062      95960.004      6974.9694      86659.924      86766.175      114453.91     -137.1828       1479.2825      1035.3054      6456.7978      7517.6345      13974.432      179904.18      44.50741       44.50741       90.818977          16040 
   3946000   3123.1778      97723.876      6982.3197      86306.535      92890.934      113974.16      2335.2432      430.64845      3851.3011      6474.9831      7523.4888      13998.472      179510.92      44.474956      44.474956      90.752754          16040 
   3947000   3123.4719      100144.33      6989.6795      87015.602      93588.878      119828.51      304.68174      965.47479     -400.66183      6475.5928      7522.2607      13997.854      179518.33      44.475568      44.475568      90.754002          16040 
   3948000   3149.1502      102180.29      6997.0335      92613.34       91887.372      122040.15     -594.18717      3028.9236     -2592.6747      6528.8291      7492.698       14021.527      179133.25      44.443745      44.443745      90.689065          16040 
   3949000   3114.777       98233.004      7004.3936      85763.364      90915.915      118019.73     -1546.7561      1241.6829      1786.3087      6457.5665      7527.6252      13985.192      179707.6       44.491193      44.491193      90.785885          16040 
   3950000   3131.7041      101937.56      7011.7484      90550.418      93601.92       121660.36      683.93576      354.21176     -1276.5339      6492.6597      7509.6399      14002.3        179428.82      44.468175      44.468175      90.738916          16040 
   3951000   3140.9331      99325.807      7019.1069      88498.796      92083.204      117395.42     -2911.6375      1786.9473     -150.61446      6511.7933      7495.0028      14006.796      179357.45      44.462278      44.462278      90.726883          16040 
   3952000   3112.6662      96410.414      7026.4567      86059.912      86179.506      116991.82      2186.9484     -3027.9004      2929.4956      6453.1904      7511.3176      13964.508      180029.58      44.517749      44.517749      90.840074          16040 
   3953000   3121.1951      99758.437      7033.8146      88007.334      90422.82       120845.16      1493.0174      1846.6717     -1273.6444      6470.8725      7518.2979      13989.17       179627.09      44.484548      44.484548      90.772326          16040 
   3954000   3142.4219      103804.1       7041.1631      92652.262      96412.276      122347.77      1292.528       1665.2939     -211.9445       6514.8799      7493.0513      14007.931      179324.23      44.459533      44.459533      90.721283          16040 
   3955000   3101.5075      103413.14      7048.5137      92055.995      95291.129      122892.3      -2336.2085     -1379.244      -110.93451      6430.0562      7576.6331      14006.689      179336.73      44.460566      44.460566      90.72339           16040 
   3956000   3131.0216      99525.613      7055.8694      86902.988      90095.212      121578.64     -184.3029      -1732.283      -2727.8946      6491.2449      7511.6942      14002.939      179391.29      44.465075      44.465075      90.73259           16040 
   3957000   3130.6556      101750.53      7063.2304      88104.692      96290.162      120856.75     -742.79112      18.632108      1883.1042      6490.486       7511.148       14001.634      179395.33      44.465408      44.465408      90.733271          16040 
   3958000   3129.6711      99153.998      7070.5877      85890.712      92826.534      118744.75      2535.4179     -1223.7315      3598.5556      6488.445       7505.962       13994.407      179504.33      44.474412      44.474412      90.751643          16040 
   3959000   3109.2608      101130.58      7077.9418      87719.397      96248.347      119423.98     -2955.3762      1799.385      -4186.0773      6446.1303      7538.5779      13984.708      179654.25      44.48679       44.48679       90.7769            16040 
   3960000   3118.3022      102488.18      7085.2934      90319.59       96082.47       121062.48      592.85372     -797.93832     -1427.8786      6464.8749      7548.8546      14013.729      179190.82      44.448505      44.448505      90.698778          16040 
   3961000   3140.2998      97637.731      7092.65        86546.353      89270.729      117096.11      2498.6318     -2261.6898     -1555.7843      6510.4805      7468.6234      13979.104      179739.75      44.493846      44.493846      90.7913            16040 
   3962000   3115.9152      98119.09       7099.9965      84093.857      91459.959      118803.45      2193.5119      2424.8223     -591.55532      6459.9263      7526.0879      13986.014      179635.93      44.485278      44.485278      90.773815          16040 
   3963000   3117.8223      102519.76      7107.3461      90892.876      94427.399      122239         240.95806      32.647959     -1439.8252      6463.88        7541.3272      14005.207      179316.01      44.458854      44.458854      90.719896          16040 
   3964000   3101.7317      100101.32      7114.7035      88226.323      92719.351      119358.28     -2446.2592     -1375.8897      1526.144       6430.5208      7556.6923      13987.213      179598.23      44.482166      44.482166      90.767465          16040 
   3965000   3121.6442      98492.348      7122.0549      86329.193      92718.171      116429.68      191.70791     -916.893       -159.2022       6471.8037      7503.766       13975.57       179781.35      44.497279      44.497279      90.798303          16040 
   3966000   3096.3489      101615.43      7129.4098      88409.476      93212.802      123224.02      415.50158     -2069.8409     -927.09684      6419.3612      7551.2879      13970.649      179858.4       44.503635      44.503635      90.811273          16040 
   3967000   3121.7619      101946.6       7136.7676      90996.187      95387.178      119456.44     -813.20769      556.52343     -88.468351      6472.0475      7534.0702      14006.118      179288.16      44.456552      44.456552      90.715199          16040 
   3968000   3155.3502      102642.85      7144.1225      89264.69       97684.663      120979.18      1950.2689      373.69794     -2059.9546      6541.683       7476.7393      14018.422      179092.93      44.440409      44.440409      90.682259          16040 
   3969000   3121.112       99424.847      7151.4777      85892.767      91246.188      121135.58      1117.9497      2030.6277      1490.7492      6470.7003      7487.3124      13958.013      180057.42      44.520044      44.520044      90.844756          16040 
   3970000   3129.2289      103149.22      7158.8347      91574.877      94733.55       123139.24      1228.3172      2596.0804     -1639.5207      6487.5281      7523.0684      14010.597      179220.11      44.450926      44.450926      90.70372           16040 
   3971000   3107.0148      101899.91      7166.1855      90055.744      93484.48       122159.51     -1684.4407     -2546.6598     -3698.9387      6441.4739      7530.9342      13972.408      179825.08      44.500887      44.500887      90.805666          16040 
   3972000   3112.4683      98585.025      7173.5363      87037.323      92786.839      115930.91     -477.87376      2389.7795      2595.9647      6452.7801      7535.7924      13988.572      179555.98      44.478677      44.478677      90.760346          16040 
   3973000   3131.6398      98969.886      7180.8927      87132.502      92593.272      117183.88     -619.59541      477.62216      2484.081       6492.5264      7493.9648      13986.491      179589.82      44.481472      44.481472      90.766048          16040 
   3974000   3123.5791      101289.22      7188.2487      89636.839      95761.397      118469.44     -650.12518     -2034.9637      197.01042      6475.815       7508.5179      13984.333      179618.15      44.48381       44.48381       90.77082           16040 
   3975000   3108.5806      98496.078      7195.6026      85110.895      89169.407      121207.93      433.57088      610.71415     -289.24605      6444.7201      7505.4121      13950.132      180157.83      44.528318      44.528318      90.861639          16040 
   3976000   3168.6462      101365.68      7202.9523      88996.378      92603.366      122497.3      -669.89483     -1217.7637      1000.7337      6569.2484      7431.8601      14001.109      179340.48      44.460876      44.460876      90.724022          16040 
   3977000   3134.6059      100341.97      7210.3101      90488.901      90133.656      120403.35     -1228.5166     -841.07861     -1193.6944      6498.6759      7482.0561      13980.732      179660.97      44.487345      44.487345      90.778033          16040 
   3978000   3120.2821      95087.022      7217.6621      84058.909      84656.07       116546.08     -1857.3623      2796.4099     -66.883959      6468.9796      7490.5271      13959.507      180000.55      44.515356      44.515356      90.835191          16040 
   3979000   3110.7616      98604.493      7225.0228      85280.387      91151.186      119381.91      1731.0363     -2409.6824     -2101.3302      6449.2418      7517.0493      13966.291      179876.15      44.505098      44.505098      90.81426           16040 
   3980000   3117.3641      98079.976      7232.3746      86504.756      89706.087      118029.09     -265.07056      1350.1732      707.78475      6462.9301      7510.8462      13973.776      179749.96      44.494689      44.494689      90.793019          16040 
   3981000   3133.1282      101441.34      7239.7305      89385.412      92912.983      122025.62      1271.3265      3248.4026     -1306.8599      6495.6123      7484.8004      13980.413      179644.11      44.485953      44.485953      90.775193          16040 
   3982000   3105.2453      100375.86      7247.0789      85317.566      93254.611      122555.4      -2412.7603      1427.3408      624.9858       6437.8052      7540.8585      13978.664      179663.32      44.487539      44.487539      90.778429          16040 
   3983000   3114.4266      98378.907      7254.4266      85956.949      92561.121      116618.65     -417.27874      2374.7372      1100.3146      6456.8399      7503.8327      13960.673      179954.46      44.511556      44.511556      90.827437          16040 
   3984000   3142.4721      98242.07       7261.7732      87581.85       88089.805      119054.56      445.67892      3661.8096     -126.46489      6514.9841      7463.6327      13978.617      179655.93      44.486929      44.486929      90.777185          16040 
   3985000   3158.1695      100507.29      7269.1221      87078.829      94879.781      119563.25     -1090.0122     -3580.1209     -335.15861      6547.528       7437.2125      13984.74       179559.77      44.47899       44.47899       90.760984          16040 
   3986000   3133.9495      102733.68      7276.4661      90112.933      94251.482      123836.64     -2394.3832      1460.2589     -2606.011       6497.315       7482.5895      13979.904      179622.01      44.484129      44.484129      90.77147           16040 
   3987000   3144.5495      102802.64      7283.8119      90039.534      96736.447      121631.94      1718.7272      1919.8673     -1336.0432      6519.291       7466.28        13985.571      179533.41      44.476813      44.476813      90.756543          16040 
   3988000   3116.0761      103039.05      7291.1559      91358.955      94845.521      122912.67     -1393.5895     -1016.6424      897.72172      6460.2598      7528.6257      13988.886      179479.73      44.472381      44.472381      90.747498          16040 
   3989000   3118.1089      102286.02      7298.5065      90740.361      92805.154      123312.54      1073.0919      1746.0452     -2867.2278      6464.4741      7525.9768      13990.451      179449.78      44.469907      44.469907      90.74245           16040 
   3990000   3132.3075      99547.511      7305.8546      90504.092      90683.612      117454.83     -305.40707      865.90744     -98.06613       6493.9108      7486.5195      13980.43       179578.03      44.480498      44.480498      90.764061          16040 
   3991000   3114.717       97389.273      7313.2089      85855.861      91319.689      114992.27      758.34142      1084.9022     -2355.0788      6457.442       7505.2652      13962.707      179849.41      44.502893      44.502893      90.80976           16040 
   3992000   3143.3248      96608.788      7320.5487      84084.37       88815.161      116926.83     -1897.8181     -2402.8133     -1360.6973      6516.7519      7435.7715      13952.523      179997.34      44.515091      44.515091      90.834651          16040 
   3993000   3113.4235      103093.2       7327.8939      91676.222      93130.184      124473.19      447.6241      -3264.1382     -3219.6091      6454.7603      7531.4394      13986.2        179437.37      44.468882      44.468882      90.740358          16040 
   3994000   3140.5037      99332.597      7335.2357      86799.302      92803.536      118394.95      2.2060649      2806.1715     -1230.5998      6510.9031      7459.7729      13970.676      179684.64      44.489299      44.489299      90.78202           16040 
   3995000   3121.3655      98511.915      7342.5915      87144.894      90386.63       118004.22      699.9497      -1079.6698      556.45849      6471.2259      7490.2194      13961.445      179822.7       44.50069       44.50069       90.805264          16040 
   3996000   3127.239       99604.67       7349.9336      86918.678      92144.112      119751.22     -316.15374      150.23102     -2192.0956      6483.4026      7472.0211      13955.424      179913.76      44.5082        44.5082        90.820589          16040 
   3997000   3136.7884      101701.55      7357.2822      90057.231      91002.806      124044.62     -589.41981      779.7815       602.30944      6503.2005      7475.5597      13978.76       179545.97      44.477851      44.477851      90.758661          16040 
   3998000   3121.6585      103796.18      7364.6387      91968.211      97696.533      121723.79     -2214.2348     -2062.2297     -1142.9403      6471.8332      7531.4076      14003.241      179135.1       44.443898      44.443898      90.689377          16040 
   3999000   3134.8313      102660.21      7371.9886      92048.715      93933.245      121998.67     -518.5241      -4.6418434      2579.9553      6499.1432      7487.9098      13987.053      179387.41      44.464754      44.464754      90.731935          16040 
   4000000   3122.1967      99667.896      7379.3514      88885.904      90598.496      119519.29     -2129.2016      1357.3443      1548.514       6472.949       7506.8441      13979.793      179500.42      44.474089      44.474089      90.750984          16040 
Loop time of 7379.35 on 8 procs for 1000000 steps with 16040 atoms

Performance: 5.854 ns/day, 4.100 hours/ns, 135.513 timesteps/s
60.7% CPU use with 1 MPI tasks x 8 OpenMP threads

MPI task timing breakdown:
Section |  min time  |  avg time  |  max time  |%varavg| %total
---------------------------------------------------------------
Pair    | 7108.4     | 7108.4     | 7108.4     |   0.0 | 96.33
Neigh   | 9.6848     | 9.6848     | 9.6848     |   0.0 |  0.13
Comm    | 35.684     | 35.684     | 35.684     |   0.0 |  0.48
Output  | 1.3009     | 1.3009     | 1.3009     |   0.0 |  0.02
Modify  | 199.17     | 199.17     | 199.17     |   0.0 |  2.70
Other   |            | 25.08      |            |       |  0.34

Nlocal:          16040 ave       16040 max       16040 min
Histogram: 1 0 0 0 0 0 0 0 0 0
Nghost:          13151 ave       13151 max       13151 min
Histogram: 1 0 0 0 0 0 0 0 0 0
Neighs:              0 ave           0 max           0 min
Histogram: 1 0 0 0 0 0 0 0 0 0
FullNghs:  1.34002e+06 ave 1.34002e+06 max 1.34002e+06 min
Histogram: 1 0 0 0 0 0 0 0 0 0

Total # of neighbors = 1340020
Ave neighs/atom = 83.542394
Neighbor list builds = 29711
Dangerous builds = 0
Total wall time: 7:32:31
