
atom_style atomic
units metal
boundary p p p
#atom_modify sort 0 0.0
newton on

read_data data.lammps
Reading data file ...
  orthogonal box = (0 0 0) to (3.89 3.89 3.89)
  1 by 1 by 1 MPI processor grid
  reading atoms ...
  8 atoms
  read_data CPU = 0.002 seconds
replicate 10 10 20
Replicating atoms ...
  orthogonal box = (0 0 0) to (38.9 38.9 77.8)
  1 by 1 by 1 MPI processor grid
  16000 atoms
  replicate CPU = 0.007 seconds

### interactions

pair_style flare
pair_coeff * * lmp.flare
Reading potential file lmp.flare with DATE: Thu

# compute unc all flare/std/atom L_inv_lmp.flare sparse_desc_lmp.flare
# compute MaxUnc all reduce max c_unc

mass 1 12.011000
mass 2 28.085000

thermo_style custom step temp press cpu pxx pyy pzz pxy pxz pyz ke pe etotal vol lx ly lz atoms    #c_MaxUnc
thermo 1000
timestep 0.0005
restart 100000 restart_*.dat

#################### Equilibrate at P and T_es ##############################
velocity all create $T 41928459 rot yes dist gaussian
velocity all create 4800 41928459 rot yes dist gaussian
fix mom all momentum 1000 linear 1 1 1 angular

fix 1 all npt temp $T $T $(100.0*dt) iso $P $P $(1000.0*dt)
fix 1 all npt temp 4800 $T $(100.0*dt) iso $P $P $(1000.0*dt)
fix 1 all npt temp 4800 4800 $(100.0*dt) iso $P $P $(1000.0*dt)
fix 1 all npt temp 4800 4800 0.050000000000000002776 iso $P $P $(1000.0*dt)
fix 1 all npt temp 4800 4800 0.050000000000000002776 iso 900000 $P $(1000.0*dt)
fix 1 all npt temp 4800 4800 0.050000000000000002776 iso 900000 900000 $(1000.0*dt)
fix 1 all npt temp 4800 4800 0.050000000000000002776 iso 900000 900000 0.5
dump 1 all custom 1000 1equil.bin id type x y z vx vy vz
run   10000 # report performance
Neighbor list info ...
  update every 1 steps, delay 10 steps, check yes
  max neighbors/atom: 2000, page size: 100000
  master list distance cutoff = 6
  ghost atom cutoff = 6
  binsize = 6, bins = 7 7 13
  1 neighbor lists, perpetual/occasional/extra = 1 0 0
  (1) pair flare/kk, perpetual
      attributes: full, newton on, kokkos_device
      pair build: full/bin/kk/device
      stencil: full/bin/3d
      bin: kk/device
Per MPI rank memory allocation (min/avg/max) = 17.74 | 17.74 | 17.74 Mbytes
   Step          Temp          Press           CPU            Pxx            Pyy            Pzz            Pxy            Pxz            Pyz           KinEng         PotEng         TotEng         Volume           Lx             Ly             Lz          Atoms   
         0   4800           488364.62      0              487683.89      488674.73      488735.25     -950.84889      429.02855     -1073.5045      9926.5587      10000.526      19927.085      117727.74      38.9           38.9           77.8               16000 
      1000   4863.1952      901585         7.5761694      906560.22      892542.59      905652.19     -992.61291     -1931.4877      385.59672      10057.248      20056.834      30114.082      116799.05      38.797444      38.797444      77.594887          16000 
      2000   4810.3         897231.09      15.123421      899201.21      893455.21      899036.84      1153.3555      1582.3632     -566.97126      9947.8595      20024.901      29972.761      116997.28      38.819379      38.819379      77.638758          16000 
      3000   4750.7511      898853.97      22.671202      904082.47      896038.14      896441.3      -848.7548       946.21375     -120.38711      9824.7103      20016.4        29841.11       116713.99      38.788023      38.788023      77.576045          16000 
      4000   4810.4276      896357.4       30.219441      900743.27      892600.59      895728.34     -1791.8409     -739.04427     -1672.3951      9948.1233      19985.017      29933.14       116804.92      38.798093      38.798093      77.596187          16000 
      5000   4772.1375      899748.77      37.765857      901461.22      901352.98      896432.11     -402.4365      -241.67703      780.93727      9868.9382      20106.269      29975.208      116873.09      38.805639      38.805639      77.611279          16000 
      6000   4752.1755      902163.46      45.309262      900027.07      904891.53      901571.79     -3324.4373     -1992.2064      939.44405      9827.6561      20057.728      29885.384      116707.58      38.787313      38.787313      77.574626          16000 
      7000   4772.5444      901641.39      52.856342      905354.74      904752.65      894816.78      2895.7895      986.68017     -186.68534      9869.7797      20087.53       29957.31       116751.86      38.792218      38.792218      77.584435          16000 
      8000   4834.8786      898405.94      60.401202      898340.84      898041.61      898835.36     -1203.0781      252.44494      2137.2564      9998.6887      20020.782      30019.471      116814.89      38.799197      38.799197      77.598394          16000 
      9000   4808.6711      906415.78      67.947816      903457.9       909144.52      906644.92      622.94874      1648.0814     -1865.0241      9944.4907      20035.333      29979.824      116568.33      38.77188       38.77188       77.543761          16000 
     10000   4817.0356      900950.58      75.494705      900220.92      900411.43      902219.4      -1160.3219      367.8309       939.54981      9961.7888      20026.663      29988.452      116706.41      38.787183      38.787183      77.574367          16000 
Loop time of 75.4947 on 8 procs for 10000 steps with 16000 atoms

Performance: 5.722 ns/day, 4.194 hours/ns, 132.460 timesteps/s
61.1% CPU use with 1 MPI tasks x 8 OpenMP threads

MPI task timing breakdown:
Section |  min time  |  avg time  |  max time  |%varavg| %total
---------------------------------------------------------------
Pair    | 72.448     | 72.448     | 72.448     |   0.0 | 95.96
Neigh   | 0.14013    | 0.14013    | 0.14013    |   0.0 |  0.19
Comm    | 0.39458    | 0.39458    | 0.39458    |   0.0 |  0.52
Output  | 0.012979   | 0.012979   | 0.012979   |   0.0 |  0.02
Modify  | 2.2644     | 2.2644     | 2.2644     |   0.0 |  3.00
Other   |            | 0.2349     |            |       |  0.31

Nlocal:          16000 ave       16000 max       16000 min
Histogram: 1 0 0 0 0 0 0 0 0 0
Nghost:          17171 ave       17171 max       17171 min
Histogram: 1 0 0 0 0 0 0 0 0 0
Neighs:              0 ave           0 max           0 min
Histogram: 1 0 0 0 0 0 0 0 0 0
FullNghs:   1.9561e+06 ave  1.9561e+06 max  1.9561e+06 min
Histogram: 1 0 0 0 0 0 0 0 0 0

Total # of neighbors = 1956098
Ave neighs/atom = 122.25612
Neighbor list builds = 353
Dangerous builds = 0
run  990000
Per MPI rank memory allocation (min/avg/max) = 17.85 | 17.85 | 17.85 Mbytes
   Step          Temp          Press           CPU            Pxx            Pyy            Pzz            Pxy            Pxz            Pyz           KinEng         PotEng         TotEng         Volume           Lx             Ly             Lz          Atoms   
     10000   4817.0356      900950.58      0              900220.92      900411.43      902219.4      -1160.3219      367.8309       939.54981      9961.7888      20026.663      29988.452      116706.41      38.787183      38.787183      77.574367          16000 
     11000   4801.2471      890645.6       7.5413056      887900.63      891947.52      892088.66      1621.2968     -86.579521      886.93526      9929.1378      19960.699      29889.837      116996.24      38.819265      38.819265      77.638529          16000 
     12000   4797.179       892914.07      15.082336      897676.55      891414         889651.66     -1617.6819     -1502.6158     -2948.6551      9920.7248      19922.478      29843.203      116857.59      38.803923      38.803923      77.607847          16000 
     13000   4818.519       899105.95      22.63076       897139.15      903023.59      897155.1       1065.5191     -120.01321     -435.69331      9964.8566      19957.797      29922.654      116744.96      38.791453      38.791453      77.582906          16000 
     14000   4826.5072      903123.65      30.178964      898224.12      902322.48      908824.35      2026.8557      254.7353      -321.72923      9981.3764      20033.39       30014.767      116650.44      38.780982      38.780982      77.561963          16000 
     15000   4824.6355      897495.4       37.723829      895180.28      901649.56      895656.37     -1084.8674      330.60124     -948.00455      9977.5057      20038.027      30015.533      116852.98      38.803413      38.803413      77.606827          16000 
     16000   4779.6236      901203.8       45.267825      903274.94      902088.48      898247.98      1541.9734      738.42569     -1050.4868      9884.4196      20051.605      29936.024      116720.57      38.788751      38.788751      77.577502          16000 
     17000   4828.1125      904933.54      52.81292       908150.85      902656.71      903993.06     -837.15971     -1405.9228     -959.26209      9984.6963      20109.654      30094.35       116715.61      38.788202      38.788202      77.576405          16000 
     18000   4798.7074      904062.71      60.35868       899923.55      901061.69      911202.9      -1244.103       1275.9823      423.39153      9923.8856      20056.421      29980.307      116696.58      38.786094      38.786094      77.572188          16000 
     19000   4746.8946      892883.31      67.904537      891781.91      891680.28      895187.73      746.76366     -1469.6586      396.88601      9816.7351      19947.863      29764.598      116906.17      38.809301      38.809301      77.618601          16000 
     20000   4789.8899      894357.72      75.447563      897958.59      891609.6       893504.97      1444.4705     -577.70428     -213.93297      9905.6506      19927.689      29833.34       116982.65      38.817762      38.817762      77.635524          16000 
     21000   4825.8819      901408.09      82.990543      897136.44      900881.37      906206.45      1733.9565     -246.15266     -856.22505      9980.0834      20053.221      30033.305      116722.67      38.788984      38.788984      77.577968          16000 
     22000   4792.3825      907467.57      90.536331      902085.63      912020.47      908296.61      639.84863      792.75372      2540.854       9910.8054      20068.56       29979.366      116516.14      38.766093      38.766093      77.532185          16000 
     23000   4806.6429      900855.69      98.07937       900696.41      900876.48      900994.18      447.73026      1587.8583     -1629.2426      9940.2965      20008.148      29948.444      116756.14      38.792691      38.792691      77.585383          16000 
     24000   4828.4549      889240.38      105.61992      886221.92      894572.16      886927.06      552.18307     -82.455909      622.15909      9985.4043      19934.66       29920.064      117087.18      38.82932       38.82932       77.658639          16000 
     25000   4783.9185      899574.09      113.16864      901932.29      895909.02      900880.96     -874.76166      275.59909      2795.992       9893.3016      20008.737      29902.039      116772.41      38.794494      38.794494      77.588987          16000 
     26000   4862.7519      893350.35      120.71225      891492.81      890900.45      897657.8      -362.51058     -453.56513      38.354486      10056.332      19995.274      30051.606      117006.74      38.820426      38.820426      77.640853          16000 
     27000   4771.1941      903667.1       128.25656      904215         902320.34      904465.96     -1038.8887     -268.82093      328.56581      9866.9872      20095.167      29962.154      116725.71      38.789321      38.789321      77.578642          16000 
     28000   4815.2849      909795.82      135.80005      906486.9       913103.56      909797        -141.47611      315.43594      2652.0679      9958.1684      20121.399      30079.568      116515.81      38.766056      38.766056      77.532111          16000 
     29000   4783.2915      899979.27      143.34692      899111.7       899160.87      901665.23      296.88682     -1090.3857     -659.192        9892.0049      20022.735      29914.74       116794.61      38.796951      38.796951      77.593902          16000 
     30000   4773.7553      896576.54      150.89064      896817.91      894742.21      898169.49      162.51988      2073.2839      1579.6625      9872.2838      20031.801      29904.084      116846.98      38.80275       38.80275       77.605499          16000 
     31000   4777.8722      895261.66      158.43683      897927.85      894202.94      893654.18      1033.9661      59.687994      92.949525      9880.7977      19963.006      29843.803      116876.55      38.806023      38.806023      77.612046          16000 
     32000   4763.8115      893731.61      165.97837      892580.38      893410.8       895203.64     -464.79225     -1062.8002     -1142.739       9851.7197      19946.753      29798.473      116840.73      38.802057      38.802057      77.604115          16000 
     33000   4797.1889      896934.64      173.52065      895605.1       897131.23      898067.58      436.13936      277.31859      150.69766      9920.7452      20014.116      29934.861      116784.18      38.795797      38.795797      77.591594          16000 
     34000   4789.0068      908577.66      181.06432      909000.65      910420.33      906311.99      1489.7193     -1230.2187     -2019.7634      9903.8243      20173.797      30077.621      116663.55      38.782434      38.782434      77.564868          16000 
     35000   4806.4395      906898.61      188.61304      901854.72      904787.17      914053.94     -378.90339     -1397.331      -1077.5446      9939.8759      20113.854      30053.73       116612.39      38.776765      38.776765      77.553529          16000 
     36000   4756.3841      899023.9       196.16031      898880.44      901908.87      896282.39     -184.32234     -405.99387      342.96704      9836.3596      20035.709      29872.069      116697.24      38.786168      38.786168      77.572335          16000 
     37000   4773.7894      897951.35      203.70502      903473.14      893230.05      897150.85      1779.7484      2455.2956      635.19426      9872.3544      20108.853      29981.207      116857.14      38.803874      38.803874      77.607748          16000 
     38000   4786.9189      907048         211.24784      903612.85      903402.82      914128.35     -1710.5982      78.669228     -919.22101      9899.5065      20213.974      30113.481      116769.35      38.794154      38.794154      77.588308          16000 
     39000   4834.847       905435.71      218.79425      901896.66      908024.59      906385.88     -2456.1238     -2155.7173     -876.22742      9998.6233      20078.047      30076.67       116649.52      38.780879      38.780879      77.561758          16000 
     40000   4835.8193      900078.21      226.33876      903350.31      896869.95      900014.37     -1565.3523      2838.1106      625.13183      10000.634      20004.837      30005.471      116742.75      38.791208      38.791208      77.582416          16000 
     41000   4763.1013      896149.52      233.88219      891911.67      900908.58      895628.32     -1070.6024      143.29209     -1.5594666      9850.2509      20000.172      29850.423      116812.26      38.798906      38.798906      77.597812          16000 
     42000   4780.0253      895331.17      241.43226      891512.03      898106.21      896375.27     -453.03146      987.63149     -656.82964      9885.2504      19963.194      29848.444      116901.62      38.808796      38.808796      77.617593          16000 
     43000   4849.455       894825.68      248.97889      898934.82      893419.2       892123.01      207.06132     -820.71858      331.41547      10028.833      19922.051      29950.884      116847.16      38.802769      38.802769      77.605538          16000 
     44000   4816.0314      905264.82      256.52715      906516.56      905450.26      903827.63      801.07294      594.09958      29.605772      9959.7121      20076.393      30036.105      116665.83      38.782686      38.782686      77.565373          16000 
     45000   4800.6745      906689.96      264.07656      908325.7       909547.23      902196.96      203.12425      206.65937     -102.13808      9927.9537      20114.929      30042.882      116569.16      38.771973      38.771973      77.543945          16000 
     46000   4804.3291      896614.86      271.62222      899704.96      896359.58      893780.05     -23.328931      356.7157       391.03013      9935.5115      19942.733      29878.245      116788.37      38.796261      38.796261      77.592522          16000 
     47000   4768.5993      886401.73      279.16959      885180.89      887138.89      886885.4      -666.07402      385.1251      -1117.9123      9861.621       19884.302      29745.923      117084.24      38.828994      38.828994      77.657989          16000 
     48000   4767.5494      890680.84      286.7172       885865.43      892156.94      894020.14     -71.365977     -1112.0834      2329.2137      9859.4497      19914.17       29773.62       116930.45      38.811987      38.811987      77.623975          16000 
     49000   4763.7864      907134.72      294.26906      901324.67      909634.45      910445.04     -62.810535      2803.6671     -1210.3815      9851.6678      20175.254      30026.922      116650.3       38.780966      38.780966      77.561933          16000 
     50000   4823.6746      908215.54      301.81908      909736.69      906587.65      908322.28     -567.38018      2115.4734     -1478.4552      9975.5186      20094.367      30069.885      116618.44      38.777435      38.777435      77.554871          16000 
     51000   4838.5296      899810.22      309.36401      902800.9       901302.72      895327.05     -878.11792     -662.69429     -208.02268      10006.239      20066.794      30073.033      116813.86      38.799083      38.799083      77.598166          16000 
     52000   4812.893       895731.87      316.90773      892373.63      894929.95      899892.04     -2518.5369      1427.7122     -179.16718      9953.2218      19990.438      29943.66       116906.19      38.809302      38.809302      77.618604          16000 
     53000   4798.6256      889405.83      324.45523      890346.35      883920.35      893950.78      1046.5607     -173.54292     -1030.9502      9923.7163      19887.527      29811.244      116932.82      38.812249      38.812249      77.624498          16000 
     54000   4782.8314      903309.47      332.00754      903351.63      906215.21      900361.56     -1555.9562     -2014.8647     -1119.9991      9891.0536      20131.118      30022.172      116683.19      38.78461       38.78461       77.56922           16000 
     55000   4848.7127      913971.38      339.553        915757.96      913071.49      913084.7      -606.00033      63.84953      -631.12894      10027.298      20256.445      30283.743      116572.74      38.772369      38.772369      77.544737          16000 
     56000   4815.599       906329.53      347.10207      905334.54      908330.95      905323.11      15.549392     -44.468234     -1784.8616      9958.818       20196.573      30155.391      116687.93      38.785135      38.785135      77.57027           16000 
     57000   4810.5207      901468.12      354.64489      901627.31      901423.38      901353.65     -251.2847      -281.756       -1630.1346      9948.3159      19993.729      29942.045      116732.37      38.790059      38.790059      77.580117          16000 
     58000   4754.2981      904815.55      362.18771      906336.8       901979.36      906130.48      212.52507      2072.7876      1354.7741      9832.0457      20053.089      29885.135      116683.35      38.784628      38.784628      77.569256          16000 
     59000   4813.35        903490.38      369.73509      905426.13      899742.36      905302.66     -2851.5736     -121.42234      872.80881      9954.1669      19981.065      29935.232      116624.78      38.778137      38.778137      77.556274          16000 
     60000   4779.8282      899117.34      377.28066      896539.71      900869.59      899942.71     -119.00503      476.06516     -205.5915       9884.8427      20141.338      30026.181      116904.85      38.809154      38.809154      77.618309          16000 
     61000   4757.8402      908617.44      384.8265       907363.27      911082.79      907406.28     -1985.3635      1184.4114     -1753.4167      9839.3708      20150.533      29989.904      116586.22      38.773864      38.773864      77.547727          16000 
     62000   4834.382       898279.37      392.37836      899121.98      898690.22      897025.9       1008.1145      573.67789      790.63582      9997.6618      20069.553      30067.214      116932.93      38.812261      38.812261      77.624522          16000 
     63000   4763.6653      892136.81      399.92122      892768.45      891401.89      892240.1      -1253.1472     -288.03788     -1799.4589      9851.4174      19973.506      29824.924      116958.27      38.815065      38.815065      77.630129          16000 
     64000   4826.0531      894850.64      407.46144      892044.44      895673.51      896833.96     -1818.7712     -271.03954     -1549.5335      9980.4373      19962.369      29942.806      116857.14      38.803874      38.803874      77.607748          16000 
     65000   4787.0641      904345.86      415.0076       907036.15      902710.37      903291.06      936.02456      609.78536      772.4198       9899.8068      20261.547      30161.353      116866.87      38.804951      38.804951      77.609902          16000 
     66000   4850.0027      907936.4       422.55598      903746.23      910162.88      909900.09     -1616.9577     -1035.9425      768.4621       10029.966      20134.445      30164.411      116619.77      38.777583      38.777583      77.555165          16000 
     67000   4824.4238      905165.25      430.10503      905842.38      903595.76      906057.62      1116.7246      154.04467     -78.706711      9977.068       20085.621      30062.689      116676.03      38.783817      38.783817      77.567633          16000 
     68000   4807.4616      906834.66      437.65128      903377.95      906748.55      910377.46     -102.20561     -481.18636     -285.55162      9941.9895      20106.317      30048.306      116666.8       38.782794      38.782794      77.565588          16000 
     69000   4762.3096      899017.73      445.19495      897197.98      903660.53      896194.68      555.2153       753.15511      273.10472      9848.6137      20125.405      29974.019      116868.65      38.805148      38.805148      77.610296          16000 
     70000   4770.4764      900110.72      452.73814      896531.25      903862.34      899938.58      267.03961     -1457.8842      84.668035      9865.5029      20010.616      29876.119      116728.01      38.789576      38.789576      77.579152          16000 
     71000   4822.3538      892545.96      460.28149      891999.32      890817.97      894820.58      903.40274      2177.4455     -922.69754      9972.7872      19946.263      29919.05       116973.5       38.816749      38.816749      77.633499          16000 
     72000   4793.9993      901501.64      467.82795      899706.98      899285.3       905512.62     -664.12333      653.2741       273.23401      9914.149       20034.032      29948.181      116693.83      38.78579       38.78579       77.571579          16000 
     73000   4810.6182      891727.48      475.37399      891367.71      892376.3       891438.43      1420.6086     -702.00725      1489.7781      9948.5176      19905.072      29853.59       116903.58      38.809014      38.809014      77.618028          16000 
     74000   4803.2206      903769.06      482.92101      904144.26      904126.94      903035.99      760.42306     -1396.3547     -975.1759       9933.219       20095.221      30028.44       116707.31      38.787283      38.787283      77.574565          16000 
     75000   4863.7576      909893.86      490.46876      914990.1       904618.51      910072.96     -2030.8469      82.295737     -192.94739      10058.412      20133.144      30191.556      116610.7       38.776577      38.776577      77.553153          16000 
     76000   4783.3526      906661.88      498.01565      905005.67      910599.8       904380.18     -441.55234     -504.02831      510.9711       9892.1314      20168.401      30060.532      116689.01      38.785255      38.785255      77.570511          16000 
     77000   4749.1168      898347.34      505.56448      898318.45      901816.46      894907.11     -58.223488     -1365.51        217.84954      9821.3305      20119.316      29940.646      116911.16      38.809852      38.809852      77.619705          16000 
     78000   4807.3046      896523.96      513.1098       898476.57      890821.87      900273.44      1477.2883      506.58285     -505.55457      9941.6648      19908.294      29849.959      116725.47      38.789294      38.789294      77.578589          16000 
     79000   4825.2301      896420.98      520.65627      897599.06      895939.41      895724.47      2624.4499      246.86383     -1261.4838      9978.7353      19985.823      29964.558      116914.69      38.810243      38.810243      77.620486          16000 
     80000   4763.5894      899295.2       528.2019       898894.14      897498.5       901492.94     -165.34755      1126.8055      764.84133      9851.2603      20154.936      30006.196      116909.18      38.809633      38.809633      77.619266          16000 
     81000   4825.0951      897645.15      535.74694      897289.96      898985.33      896660.16     -1560.4073      2985.8698      296.10953      9978.4562      20020.348      29998.804      116813.87      38.799084      38.799084      77.598168          16000 
     82000   4820.3824      905635.38      543.29019      906235.81      904527.94      906142.4       2109.781      -1016.0513     -1340.0819      9968.7102      20109.266      30077.976      116649.46      38.780873      38.780873      77.561747          16000 
     83000   4881.3632      916712.11      550.83547      915503.48      919035.2       915597.66      2053.1624     -1973.12        958.86528      10094.82       20173.615      30268.436      116465.11      38.760432      38.760432      77.520864          16000 
     84000   4817.1189      898852.68      558.38109      895167.79      901540.27      899849.99      234.69761     -898.98433      2315.8403      9961.9611      20061.824      30023.785      116829.88      38.800856      38.800856      77.601712          16000 
     85000   4732.8231      900339.22      565.92587      898907.06      903149.7       898960.92     -3313.4165      830.34502     -3211.6727      9787.6346      20107.672      29895.307      116709.55      38.787531      38.787531      77.575062          16000 
     86000   4844.5959      892476.86      573.47026      892990.22      893739.23      890701.11      1840.9045      699.87544     -619.8033       10018.784      19927.028      29945.813      117068.69      38.827276      38.827276      77.654553          16000 
     87000   4801.1472      899066.48      581.00993      899045.19      898771.68      899382.58     -1621.0978     -1852.241      -797.03214      9928.9311      19929.772      29858.703      116747.08      38.791688      38.791688      77.583376          16000 
     88000   4793.1908      894729.72      588.55578      895635.79      892896.78      895656.57     -1367.7208      483.88988      1226.657       9912.4771      19988.817      29901.294      116918.28      38.81064       38.81064       77.62128           16000 
     89000   4840.6985      897418.97      596.1005       894668.45      902021.48      895566.97     -1964.2994      5.2326717     -475.39171      10010.724      19953.517      29964.241      116845.34      38.802568      38.802568      77.605136          16000 
     90000   4854.0269      897175.52      603.64163      902905.42      895641.87      892979.26      2668.4584     -1165.8606      627.0761       10038.288      19967.852      30006.14       116909.74      38.809696      38.809696      77.619391          16000 
     91000   4795.2029      905276.33      611.18228      898005.06      909163.99      908659.92     -748.75975     -386.90936      645.64077      9916.6381      20099.614      30016.252      116606.4       38.7761        38.7761        77.5522            16000 
     92000   4770.2025      896605.68      618.72416      893014         900926.29      895876.74      264.84947     -1301.7831     -527.03187      9864.9364      20055.825      29920.761      116911.5       38.80989       38.80989       77.619779          16000 
     93000   4809.5283      894607.59      626.26685      894411.56      892645.79      896765.42     -874.08244      1703.4622      1060.1934      9946.2636      19890.8        29837.064      116910.12      38.809737      38.809737      77.619475          16000 
     94000   4782.7193      899338.52      633.81948      899075.99      896631.16      902308.4       406.53369      2134.301       686.15464      9890.8216      20055.786      29946.608      116758.06      38.792904      38.792904      77.585808          16000 
     95000   4828.3417      897161.51      641.36372      896667.11      895816.6       899000.81     -224.91367     -3138.0809      677.48852      9985.1702      20040.323      30025.494      116901.14      38.808744      38.808744      77.617487          16000 
     96000   4835.5406      905611.74      648.91117      905177.63      910784.89      900872.7      -163.30847      6.0792863     -21.195254      10000.058      20046.648      30046.706      116644.75      38.780351      38.780351      77.560701          16000 
     97000   4753.9849      908329.13      656.45848      906489.86      912319.57      906177.96      967.46122     -526.53541     -461.99865      9831.3979      20100.464      29931.862      116603.68      38.775798      38.775798      77.551597          16000 
     98000   4783.0916      899506.63      664.00235      899924.94      896552.51      902042.44      730.63302     -844.06717     -3632.1713      9891.5916      19999.023      29890.615      116807.96      38.79843       38.79843       77.596859          16000 
     99000   4830.2054      896557.78      671.54453      892446.45      899458.82      897768.06     -560.99904     -1501.5153      1515.947       9989.0244      20021.771      30010.796      116920.13      38.810845      38.810845      77.621691          16000 
    100000   4836.9017      899442.54      679.09647      892243.48      901474.44      904609.69     -157.19176      612.05545     -185.24239      10002.873      20123.399      30126.272      116928.87      38.811812      38.811812      77.623624          16000 
    101000   4791.6641      898307.25      686.64083      896378.1       892510.54      906033.09     -167.32765      769.60161     -552.42898      9909.3197      19989.216      29898.535      116810.83      38.798748      38.798748      77.597496          16000 
    102000   4742.1896      908256.81      694.18835      907841.08      907736.55      909192.81     -512.10923     -883.22695     -236.10688      9807.0049      20180.623      29987.627      116623.65      38.778013      38.778013      77.556025          16000 
    103000   4777.7477      899552.31      701.73411      893912.51      900401.78      904342.63      351.99052     -114.55315     -613.48931      9880.5401      20082.256      29962.796      116825.56      38.800378      38.800378      77.600756          16000 
    104000   4732.8675      909055.18      709.27849      909462.25      907032.52      910670.76     -289.16664      1460.302       654.51621      9787.7264      20199.733      29987.46       116625.19      38.778183      38.778183      77.556366          16000 
    105000   4800.4067      904503.15      716.82466      901255.55      905118.71      907135.2       661.1099      -405.2011       2483.0521      9927.3997      20076.131      30003.53       116725.9       38.789342      38.789342      77.578683          16000 
    106000   4817.3549      903618.8       724.37047      902489.5       905428.8       902938.11     -1077.2233      927.60025      349.33541      9962.4491      20083.098      30045.547      116725.09      38.789252      38.789252      77.578503          16000 
    107000   4770.4354      893930.14      731.91479      895063.74      891990.35      894736.34      321.91297      226.27617      1005.144       9865.4181      19893.763      29759.181      116764.16      38.79358       38.79358       77.58716           16000 
    108000   4803.2573      887122.04      739.45892      885287.33      887810.36      888268.45     -1228.8112     -478.60869      921.04102      9933.2949      19915.483      29848.778      117119.39      38.83288       38.83288       77.66576           16000 
    109000   4802.3504      894801.15      747.00119      889038.85      898711.12      896653.47      2393.0938     -1068.066       562.6102       9931.4195      20000.35       29931.769      116959.6       38.815211      38.815211      77.630422          16000 
    110000   4802.3127      903119.33      754.54621      906786.67      903063.24      899508.09     -2474.7114      1085.6116      526.76774      9931.3414      20072.309      30003.651      116679.79      38.784234      38.784234      77.568468          16000 
    111000   4851.665       894147.81      762.08909      888716.5       896139.19      897587.74      2692.0042      2303.8318     -896.70032      10033.404      20013.427      30046.831      116952.14      38.814387      38.814387      77.628773          16000 
    112000   4816.0804      899758.48      769.63546      900401.24      898390.06      900484.15     -2312.1039      413.2869      -1166.7722      9959.8135      20046.105      30005.919      116677         38.783924      38.783924      77.567849          16000 
    113000   4735.3189      902592.35      777.17784      902454.14      902592.21      902730.72      1282.8914     -314.21624      375.78234      9792.796       20060.426      29853.222      116728.06      38.789582      38.789582      77.579163          16000 
    114000   4829.2625      888197.04      784.72073      893784.59      883657.03      887149.5      -671.02226     -965.42423     -111.76436      9987.0745      19932.357      29919.431      117113.02      38.832176      38.832176      77.664352          16000 
    115000   4767.377       892212.52      792.26562      891502.09      892141.37      892994.1      -634.41069     -549.66194      1540.887       9859.0933      19839.258      29698.351      116845.31      38.802564      38.802564      77.605128          16000 
    116000   4770.4524      891370.5       799.8116       889942.76      888082.28      896086.46      1546.1231     -356.79414      53.326142      9865.4532      19978.657      29844.11       116961.73      38.815447      38.815447      77.630894          16000 
    117000   4812.0149      902601.74      807.35653      900818.89      905108.44      901877.91      43.14499      -1016.3278     -837.74141      9951.4058      20035.722      29987.128      116738.31      38.790716      38.790716      77.581433          16000 
    118000   4797.9981      907159         814.90253      909591.26      906078.81      905806.93      869.66989      110.70996     -296.73718      9922.4187      20049.335      29971.754      116560.55      38.771017      38.771017      77.542035          16000 
    119000   4844.0196      894513.64      822.45097      898635.78      893894.96      891010.17     -1013.4533     -3610.8215     -118.72427      10017.593      19980.306      29997.899      116935.28      38.812521      38.812521      77.625041          16000 
    120000   4785.0849      898733.73      830.00404      896589.72      895579.75      904031.73     -235.65248      2014.2917      1569.5612      9895.7137      19882.989      29778.703      116816.92      38.799422      38.799422      77.598843          16000 
    121000   4775.9193      900081.63      837.55385      898668.04      903043.74      898533.11      939.20708      569.6646      -770.96011      9876.759       19998.62       29875.379      116796.23      38.79713       38.79713       77.594261          16000 
    122000   4747.2688      902311.13      845.10021      904325.99      901898.7       900708.68      2340.2977      748.19747      225.21641      9817.5089      20139.018      29956.527      116810.91      38.798756      38.798756      77.597512          16000 
    123000   4826.1388      913978.17      852.64901      917089.41      917998.84      906846.27      308.85301     -193.35279     -1438.3229      9980.6146      20261.952      30242.566      116578.69      38.773029      38.773029      77.546057          16000 
    124000   4807.0241      909218.46      860.19904      914563.43      908170.08      904921.88     -348.72555      1147.5746      434.93908      9941.0848      20188.45       30129.535      116579.47      38.773115      38.773115      77.54623           16000 
    125000   4783.3074      895589.24      867.7484       894898.69      897557.92      894311.1      -693.62866     -1745.5383      2152.2467      9892.0378      20040.451      29932.489      116885.06      38.806964      38.806964      77.613929          16000 
    126000   4766.6674      888682.27      875.29255      887741.85      889433.19      888871.78      481.76876     -618.9912       1708.9899      9857.6258      19971.224      29828.85       116995.73      38.819208      38.819208      77.638417          16000 
    127000   4797.1662      896527.84      882.83684      900707.61      892844.45      896031.46     -2408.766      -2044.0399     -1547           9920.6983      20004.458      29925.157      116850.3       38.803117      38.803117      77.606233          16000 
    128000   4813.6781      906253.47      890.38336      905458.56      902392.78      910909.06      2046.3151     -345.67243      344.31677      9954.8453      20142.051      30096.896      116733.37      38.79017       38.79017       77.58034           16000 
    129000   4820.061       899755.09      897.92702      900088.35      899746.19      899430.72      1009.0626     -1965.8188     -120.58641      9968.0454      20071.501      30039.546      116849.04      38.802977      38.802977      77.605954          16000 
    130000   4795.9359      900116.9       905.4731       901918.38      899363.6       899068.73     -1600.5436      546.03392      2370.8982      9918.1539      20047.291      29965.445      116764.67      38.793635      38.793635      77.587271          16000 
    131000   4780.6029      901529.75      913.01563      899212.37      900839.12      904537.77      1454.6039     -1061.3741      410.66363      9886.4447      20013.039      29899.483      116685.05      38.784817      38.784817      77.569634          16000 
    132000   4810.3227      904559.95      920.55993      903352.21      909088.81      901238.84      1543.8439      2187.2949     -526.0581       9947.9064      20079.63       30027.536      116748.69      38.791866      38.791866      77.583732          16000 
    133000   4795.2692      901948.47      928.10882      902612.55      898541.97      904690.89     -1473.2912      375.67068      1004.7951      9916.7752      19991.469      29908.244      116589.58      38.774236      38.774236      77.548471          16000 
    134000   4830.167       908004.81      935.65093      912474.55      907086.28      904453.6       152.28168      2475.8092     -1923.0618      9988.945       20207.83       30196.775      116676.1       38.783825      38.783825      77.567649          16000 
    135000   4822.5024      907428.13      943.19833      909783.85      904350.13      908150.4      -2756.9385      539.90458      1264.5017      9973.0943      20114.683      30087.778      116586.86      38.773934      38.773934      77.547868          16000 
    136000   4809.0773      896678.25      950.74368      895205.31      898963.71      895865.73     -91.64859       3497.2281      1851.2074      9945.3309      19974.435      29919.766      116810.32      38.798691      38.798691      77.597383          16000 
    137000   4788.167       897663.63      958.28806      892641.44      898919.58      901429.86      3068.4543     -1546.2872     -560.19677      9902.0876      19966.92       29869.008      116741.91      38.791116      38.791116      77.582231          16000 
    138000   4852.1572      902451.37      965.83197      907610.02      892190.13      907553.97      1266.1682      774.59218      795.14614      10034.422      20096.648      30131.069      116786.81      38.796087      38.796087      77.592175          16000 
    139000   4805.3021      896706.18      973.37526      893671.22      902596.06      893851.27      269.84843     -619.40507      1394.1475      9937.5237      20011.537      29949.06       116938.04      38.812826      38.812826      77.625653          16000 
    140000   4788.3129      896946.55      980.91735      896183.62      896967.53      897688.51      381.04119      1567.1311     -46.678929      9902.3893      19962.42       29864.809      116864.7       38.80471       38.80471       77.609421          16000 
    141000   4802.1146      893018.99      988.46261      897590.17      892045.95      889420.85      2206.5068      81.263963      2814.9252      9930.9318      19991.524      29922.455      116950.23      38.814175      38.814175      77.62835           16000 
    142000   4812.9183      890404.96      996.00696      892262.6       893244.06      885708.22     -687.48049      574.66887      168.84086      9953.2742      19858.644      29811.918      116922.72      38.811132      38.811132      77.622263          16000 
    143000   4783.038       892269.66      1003.5503      895733.55      892142.98      888932.46      785.08714      796.40296      1037.9807      9891.4808      19917.129      29808.61       116982.68      38.817764      38.817764      77.635529          16000 
    144000   4752.6599      909863.84      1011.0912      904742.44      913514.09      911334.98     -1978.305      -313.63155     -787.8902       9828.6577      20225.586      30054.244      116656.01      38.781599      38.781599      77.563198          16000 
    145000   4829.3365      906874.12      1018.6353      908127.94      908779.3       903715.13      376.56384     -1031.0937     -821.63316      9987.2276      20112.843      30100.071      116739.43      38.790841      38.790841      77.581681          16000 
    146000   4764.6868      902385.88      1026.1752      904537.7       900181.26      902438.69     -27.483024      629.14682     -694.85164      9853.5297      20154.375      30007.905      116830.1       38.80088       38.80088       77.601761          16000 
    147000   4793.9131      904088.41      1033.7201      904824.71      908345.54      899094.98     -1845.7185     -434.6614      -534.65039      9913.9708      20165.2        30079.171      116758.38      38.792939      38.792939      77.585879          16000 
    148000   4818.1518      912408.81      1041.2644      912987.25      910287.22      913951.96     -26.565801      990.28716      2111.4307      9964.0972      20157.717      30121.814      116572.53      38.772345      38.772345      77.544691          16000 
    149000   4768.7539      892764.65      1048.8052      895171.31      890212.29      892910.34     -1802.3405      1822.0721      1868.5721      9861.9407      20049.227      29911.168      116966.19      38.815941      38.815941      77.631881          16000 
    150000   4752.6953      897086.2       1056.3481      892411.76      902520.15      896326.69     -1899.8371     -1692.159      -1396.2602      9828.7311      20060.205      29888.937      116881.72      38.806595      38.806595      77.613189          16000 
    151000   4773.6697      889629.26      1063.8924      888143.8       895940.4       884803.59     -2117.6211     -2295.9331     -1897.9424      9872.1068      19958.257      29830.364      117065.41      38.826914      38.826914      77.653827          16000 
    152000   4751.8828      896220.24      1071.4377      896112.73      896830.01      895717.98     -47.963876      3213.1025      380.89257      9827.0506      20089.557      29916.608      116866.92      38.804956      38.804956      77.609912          16000 
    153000   4770.5431      905571.81      1078.9842      907859.88      906659.57      902195.97      447.87814     -1114.5571      416.84454      9865.6408      20075.997      29941.637      116599.6       38.775346      38.775346      77.550693          16000 
    154000   4767.2716      905387.46      1086.5327      904260.56      903526.79      908375.03     -1694.1051     -310.19876      300.52429      9858.8754      20184.654      30043.529      116696.04      38.786034      38.786034      77.572067          16000 
    155000   4789.4441      894730         1094.0752      891905.09      898068.79      894216.11     -1119.9751     -392.77383     -424.3837       9904.7288      20053.028      29957.757      116947.43      38.813865      38.813865      77.627731          16000 
    156000   4740.9322      900038.63      1101.6206      900298.06      896459.17      903358.66      220.35602     -451.13446      434.48658      9804.4044      20042.3        29846.705      116755.18      38.792585      38.792585      77.585171          16000 
    157000   4799.8438      896912.9       1109.1657      894751.83      898961.95      897024.91     -703.8965      -2011.1176     -141.5782       9926.2356      20069.037      29995.273      116924.59      38.811339      38.811339      77.622678          16000 
    158000   4725.9939      905718.91      1116.713       905630.82      904249.36      907276.54      605.55183      1115.913      -1265.2752      9773.5117      20194.429      29967.941      116680.68      38.784332      38.784332      77.568665          16000 
    159000   4815.6781      900467.1       1124.2567      905796.67      900127.15      895477.49     -315.03097      335.18067      777.29315      9958.9815      20013.497      29972.479      116694.37      38.785849      38.785849      77.571699          16000 
    160000   4788.7091      904506.27      1131.8005      909395.18      901745.49      902378.15     -1735.484      -546.61024      1521.863       9903.2087      20178.372      30081.58       116750.28      38.792043      38.792043      77.584086          16000 
    161000   4798.7296      907580.06      1139.3444      913449.07      903027.05      906264.06     -1147.5565     -640.59599     -38.405033      9923.9316      20199.542      30123.474      116688.71      38.785222      38.785222      77.570443          16000 
    162000   4851.9383      907142.98      1146.887       904291.87      907649.6       909487.46      996.11152      539.90075     -2379.4821      10033.969      20150.716      30184.685      116753.32      38.792379      38.792379      77.584757          16000 
    163000   4783.1249      899445.03      1154.4289      899335.69      898917.46      900081.95      922.20232      455.84817      2914.3021      9891.6604      20029.189      29920.849      116905.32      38.809206      38.809206      77.618413          16000 
    164000   4747.5634      894157.6       1161.9705      893433.45      899336.17      889703.19     -616.62958     -1308.3808     -1436.7561      9818.118       19990.507      29808.625      116905.62      38.80924       38.80924       77.618479          16000 
    165000   4871.1047      895913.58      1169.5155      898024.58      896628.28      893087.87     -77.96081       1974.1783      608.21106      10073.605      20044.441      30118.047      116989.39      38.818507      38.818507      77.637013          16000 
    166000   4768.5101      904983         1177.058       903872.39      907360.21      903716.4      -1672.6335      637.47264      728.08615      9861.4365      20127.091      29988.528      116650.53      38.780991      38.780991      77.561982          16000 
    167000   4796.758       903537.97      1184.5995      902965.97      907709.82      899938.11     -949.35934      381.61031     -189.9966       9919.8541      20177.573      30097.427      116829.23      38.800785      38.800785      77.60157           16000 
    168000   4823.2253      906742.64      1192.1423      906501.13      912858         900868.77      2796.7826     -1357.4949      710.36759      9974.5894      20126.081      30100.67       116663.2       38.782395      38.782395      77.564791          16000 
    169000   4826.0732      902096.63      1199.6908      908987.22      894046.06      903256.6      -715.41672     -372.31331     -743.93964      9980.479       20146.969      30127.448      116817.51      38.799486      38.799486      77.598973          16000 
    170000   4808.8269      902450.12      1207.2368      902305.54      901425.82      903619.01     -3782.5832     -1239.0758     -1069.2371      9944.8131      20027.702      29972.515      116729.01      38.789686      38.789686      77.579373          16000 
    171000   4793.6674      899064.61      1214.7813      899975.08      901236.08      895982.67     -402.46382      554.10668     -863.22599      9913.4627      19875.349      29788.812      116730.83      38.789888      38.789888      77.579776          16000 
    172000   4790.0715      902044.3       1222.3288      904512.91      903207.39      898412.59      2466.5515      401.13591     -1300.1412      9906.0262      20157.606      30063.633      116749.71      38.791979      38.791979      77.583959          16000 
    173000   4806.5313      897049.11      1229.8755      900435.7       895692.6       895019.03      1611.1673     -579.85272      1713.0961      9940.0657      20051.297      29991.363      116881.61      38.806583      38.806583      77.613165          16000 
    174000   4832.8643      893066.3       1237.4217      893433.69      892805.8       892959.41     -860.17546     -314.48087     -8.2961464      9994.5232      19973.904      29968.427      117020.35      38.821931      38.821931      77.643863          16000 
    175000   4781.5656      896601.55      1244.9676      897207.74      894606.96      897989.96      694.81539     -2017.5068      84.907549      9888.4357      20013.362      29901.798      116897.2       38.808307      38.808307      77.616615          16000 
    176000   4793.1518      897815.99      1252.5122      889887.91      901372.91      902187.16      3220.9155     -864.92506      753.94958      9912.3964      19962.528      29874.924      116751.21      38.792145      38.792145      77.584291          16000 
    177000   4772.6388      902897.68      1260.0608      902742.88      896503.03      909447.12     -1357.5869     -1124.1009      1356.4367      9869.9748      20174.228      30044.203      116739.13      38.790807      38.790807      77.581614          16000 
    178000   4802.2209      915141.41      1267.606       915385.47      916792.92      913245.85      1687.1461     -456.33288      935.21255      9931.1516      20184.222      30115.373      116452.64      38.759049      38.759049      77.518099          16000 
    179000   4796.3666      908090.41      1275.1616      904423.58      911192.82      908654.82     -806.4095      -259.33465      4.4841173      9919.0447      20253.872      30172.916      116697.85      38.786235      38.786235      77.57247           16000 
    180000   4792.355       906008.57      1282.7122      901872.23      906555.76      909597.71      440.88123     -166.11911      1924.4413      9910.7486      20179.425      30090.174      116731.5       38.789962      38.789962      77.579925          16000 
    181000   4811.6692      903322.16      1290.2579      903034.72      904459.71      902472.05      2993.699      -1099.7626      249.80556      9950.691       20040.352      29991.043      116682.66      38.784552      38.784552      77.569104          16000 
    182000   4837.7002      896344.48      1297.8039      893348.75      896279.8       899404.89     -134.62179     -2533.4472     -482.95292      10004.524      20112.133      30116.657      116914.2       38.810189      38.810189      77.620377          16000 
    183000   4802.0899      898974.14      1305.3539      900099.96      901817.81      895004.65     -857.30452      576.54701     -756.41108      9930.8806      20132.397      30063.277      116809.52      38.798602      38.798602      77.597205          16000 
    184000   4789.7167      904837.88      1312.901       905198.2       905344.31      903971.14     -421.33089      1044.5359     -721.81335      9905.2924      20055.937      29961.229      116655.64      38.781557      38.781557      77.563115          16000 
    185000   4793.3592      899014.87      1320.4471      899046.91      900583.32      897414.38      334.44072     -278.28646     -896.54329      9912.8253      20023.635      29936.461      116897.15      38.808303      38.808303      77.616605          16000 
    186000   4752.5664      889629.33      1327.9931      887949.38      887794.83      893143.79      1871.606      -1483.6905     -500.57365      9828.4644      19880.965      29709.429      117002.64      38.819973      38.819973      77.639945          16000 
    187000   4787.2089      899416.09      1335.5433      904368.87      895813.52      898065.87      922.89168      2128.6995      1289.8574      9900.1063      20046.019      29946.125      116857.21      38.803882      38.803882      77.607763          16000 
    188000   4814.6401      900595.19      1343.0925      899138.32      902798.29      899848.97      17.591857      917.33812      625.25226      9956.8349      20151.17       30108.005      116832.87      38.801187      38.801187      77.602375          16000 
    189000   4811.3884      903066         1350.637       903940.49      905812.48      899445.04     -1508.5495     -1979.1669     -113.00518      9950.1102      20046.258      29996.368      116744.16      38.791364      38.791364      77.582729          16000 
    190000   4762.6393      891724.23      1358.183       893356.41      893274.08      888542.2       1818.8157      1477.3171     -1843.8517      9849.2954      19955.732      29805.028      116907.2       38.809414      38.809414      77.618828          16000 
    191000   4812.612       893125.46      1365.7275      893362.53      892080.13      893933.7      -771.6717       493.68268     -2081.0704      9952.6407      19936.175      29888.816      117039.3       38.824026      38.824026      77.648052          16000 
    192000   4840.6914      903735.33      1373.2797      905251.94      903344.47      902609.59      2327.4308      364.63501      1473.4601      10010.71       20127.254      30137.964      116809.57      38.798608      38.798608      77.597216          16000 
    193000   4761.1169      904726.65      1380.8308      901378.47      907502.99      905298.49     -806.08871     -1237.8904      1124.3202      9846.1472      20197.989      30044.137      116740.21      38.790927      38.790927      77.581855          16000 
    194000   4799.7091      893575.17      1388.3859      891574.41      893071.82      896079.29     -1959.295       223.73404     -466.20344      9925.9571      20051.646      29977.603      116915.41      38.810322      38.810322      77.620644          16000 
    195000   4743.7224      901280.52      1395.94        902765         901864.71      899211.84     -966.25517     -1026.9647      1878.3642      9810.1747      20078.751      29888.926      116704.52      38.786973      38.786973      77.573946          16000 
    196000   4878.838       902708.36      1403.4947      906983.43      901468.12      899673.53      8.0650723      1166.5327     -735.59919      10089.598      20112.224      30201.822      116716.63      38.788315      38.788315      77.57663           16000 
    197000   4806.4064      910324.06      1411.0516      907202.37      910243.26      913526.56     -2131.9905      1277.4489      1748.0918      9939.8073      20235.779      30175.586      116565.08      38.77152       38.77152       77.543039          16000 
    198000   4750.8291      898097.09      1418.6003      899552.07      897234.72      897504.47      1483.735      -835.85762      600.26408      9824.8716      20214.486      30039.358      116925.76      38.811468      38.811468      77.622936          16000 
    199000   4739.7303      897679.98      1426.145       899565.81      895164.25      898309.88      462.23517     -630.0159       348.40545      9801.9189      20048.708      29850.627      116928.35      38.811755      38.811755      77.623509          16000 
    200000   4846.7634      889678.92      1433.6996      885881.5       894905.74      888249.53     -1049.084      -570.54782     -794.29446      10023.267      19880.509      29903.776      117049.16      38.825116      38.825116      77.650233          16000 
    201000   4772.4475      899971.47      1441.252       895455.17      903787.29      900671.96      1141.9236      651.81928     -941.48213      9869.5792      19950.56       29820.139      116755.93      38.792668      38.792668      77.585337          16000 
    202000   4800.5485      902256.37      1448.8043      903511.08      902585.27      900672.76     -867.86267     -1543.2214      3717.2198      9927.6929      20012.615      29940.308      116723.83      38.789113      38.789113      77.578226          16000 
    203000   4852.0427      897008.47      1456.3573      897742.61      898722.06      894560.73      11.760055      524.74526     -1362.319       10034.185      20010.659      30044.844      116869.52      38.805244      38.805244      77.610488          16000 
    204000   4756.9825      907386.81      1463.9063      906145.18      907156.31      908858.95     -1053.0709      194.42379     -1243.2719      9837.597       20114.75       29952.347      116610.78      38.776585      38.776585      77.553171          16000 
    205000   4827.7929      891791.32      1471.4612      890446.74      894628.23      890298.99      1677.5324     -177.58012      223.95388      9984.0353      20001.49       29985.526      117007.43      38.820502      38.820502      77.641004          16000 
    206000   4787.031       898400.76      1479.0134      899068.26      896270.23      899863.78      4660.6826     -1417.8119     -1299.3428      9899.7384      20025.634      29925.373      116771.73      38.794417      38.794417      77.588835          16000 
    207000   4793.9006      898660.68      1486.5675      898198.33      900116.58      897667.12     -2114.1573     -1114.727      -1838.1523      9913.9449      19975.185      29889.129      116809.91      38.798646      38.798646      77.597292          16000 
    208000   4763.5088      896759.02      1494.1156      897838.79      894005.13      898433.13      535.55788     -1760.1249     -421.27178      9851.0937      20118.647      29969.74       116983.52      38.817858      38.817858      77.635716          16000 
    209000   4780.6695      899393.49      1501.6666      901393.65      898621.26      898165.56      480.56506      1689.1493      2297.1435      9886.5826      19975.705      29862.287      116741.6       38.791081      38.791081      77.582161          16000 
    210000   4819.1144      904480.18      1509.2142      903443.53      909096.17      900900.83     -1312.4373     -1047.3152      624.36956      9966.0879      20128.048      30094.136      116722.85      38.789004      38.789004      77.578008          16000 
    211000   4837.3708      903277.25      1516.7605      902492.73      904012.17      903326.87      2900.4869      588.9536       1884.6965      10003.843      20130.159      30134.002      116748.25      38.791817      38.791817      77.583634          16000 
    212000   4797.4296      895833.79      1524.3096      896182.89      897472.18      893846.29     -1122.4019     -490.57511     -201.28843      9921.243       20008.726      29929.969      116870.32      38.805333      38.805333      77.610665          16000 
    213000   4780.72        898140.9       1531.861       895379.4       902446.47      896596.84     -778.86051     -452.28971      753.48171      9886.687       20118.1        30004.787      116960.47      38.815308      38.815308      77.630615          16000 
    214000   4832.845       901264.8       1539.4093      901167.34      899731.32      902895.73     -304.87361      2010.7664     -1124.2557      9994.4832      19981.321      29975.804      116666.45      38.782755      38.782755      77.56551           16000 
    215000   4828.6357      901835.08      1546.9598      900971.38      901910.44      902623.42     -463.36556      1023.2339     -657.18577      9985.7782      20088.285      30074.063      116806.01      38.798214      38.798214      77.596428          16000 
    216000   4796.6393      910733.18      1554.5123      907278.25      915986.25      908935.05      19.771207      726.31043     -2590.7556      9919.6086      20278.237      30197.846      116581.85      38.773379      38.773379      77.546757          16000 
    217000   4795.9675      910413.98      1562.0629      911168.92      908040.46      912032.55      45.998228      239.45985      222.70833      9918.2194      20223.421      30141.64       116616.92      38.777266      38.777266      77.554532          16000 
    218000   4760.5954      898448.39      1569.6128      891981.8       900044.93      903318.44      1684.8088      2635.5108     -2408.5564      9845.0687      20075.663      29920.731      116931.9       38.812147      38.812147      77.624294          16000 
    219000   4795.8948      894399.92      1577.1637      893666.51      893269.68      896263.57      595.06467      1675.9447      2200.564       9918.0689      19921.807      29839.876      116830.17      38.800888      38.800888      77.601776          16000 
    220000   4801.1018      897067.82      1584.7145      899436.41      894048.79      897718.25      799.26509      2109.9982      1064.6397      9928.8373      19997.616      29926.453      116935.75      38.812573      38.812573      77.625147          16000 
    221000   4769.3421      895187.25      1592.2641      897195.79      895596.59      892769.39     -57.998766      1054.9629      1212.3812      9863.1572      20044.339      29907.496      116875.24      38.805878      38.805878      77.611756          16000 
    222000   4794.8877      889831.96      1599.8139      895528.53      888295.7       885671.67     -408.04994     -830.69183     -1359.2791      9915.9863      19917.121      29833.107      117044.32      38.824582      38.824582      77.649164          16000 
    223000   4794.8157      899343.62      1607.3602      899397.66      895329.42      903303.77      429.55881     -986.04859     -1555.2106      9915.8373      20026.274      29942.111      116789.22      38.796354      38.796354      77.592709          16000 
    224000   4786.519       901551.79      1614.911       902655.67      902015.72      899983.98     -283.96355     -903.95216      1859.3922      9898.6795      20136.083      30034.762      116822.94      38.800088      38.800088      77.600177          16000 
    225000   4764.1498      900993.26      1622.4619      898186.65      906784.89      898008.24      251.1508      -103.32507      443.92447      9852.4192      19980.439      29832.859      116708.35      38.787398      38.787398      77.574795          16000 
    226000   4787.3964      903707.49      1630.0148      900492.72      905355.13      905274.62     -1754.4538     -171.63731     -1086.1319      9900.494       20176.58       30077.074      116802.01      38.79777       38.79777       77.595541          16000 
    227000   4801.3917      906990.83      1637.5654      913771.73      900719.63      906481.13     -1050.1095     -166.71805      1173.6118      9929.4367      20169.806      30099.242      116672.02      38.783373      38.783373      77.566746          16000 
    228000   4800.7592      905753.34      1645.1129      904660.15      909389.16      903210.73      1351.7471     -1186.551      -582.34599      9928.1288      20206.188      30134.317      116747.78      38.791766      38.791766      77.583532          16000 
    229000   4827.0749      915477.75      1652.664       920456.95      910701.32      915274.99     -1101.766       908.7614       11.090612      9982.5505      20195.776      30178.327      116389.2       38.75201       38.75201       77.50402           16000 
    230000   4828.6086      900950.11      1660.2165      905562.97      900527.42      896759.95     -849.42743     -2850.3768      1678.8061      9985.7223      20102.773      30088.495      116842.91      38.802299      38.802299      77.604597          16000 
    231000   4776.0509      903768.91      1667.7699      905682.46      897204.34      908419.93      600.68079      2215.8888      58.267334      9877.0313      20133.991      30011.023      116779.15      38.79524       38.79524       77.59048           16000 
    232000   4794.9527      902648.6       1675.3176      906319.51      902562.41      899063.88     -133.20654      852.32934      1470.8374      9916.1207      19975.46       29891.581      116681.56      38.78443       38.78443       77.568859          16000 
    233000   4818.0794      896470.83      1682.8701      898076.98      892719.35      898616.18     -767.95474      767.54542      1648.6959      9963.9474      20048.295      30012.243      116993.66      38.818979      38.818979      77.637958          16000 
    234000   4780.6112      896542.96      1690.4201      898024.71      899355.24      892248.91     -375.99912     -484.57247     -272.9608       9886.4621      19925.648      29812.11       116806.83      38.798304      38.798304      77.596609          16000 
    235000   4815.6574      901173.93      1697.9713      901508.55      901232.04      900781.21      409.67404     -263.45784      120.28787      9958.9387      20099.688      30058.626      116783.36      38.795705      38.795705      77.591411          16000 
    236000   4746.8024      905082.05      1705.5248      900301.45      904616.84      910327.85     -118.32157      143.07168     -523.03234      9816.5444      20071.148      29887.692      116655.2       38.781509      38.781509      77.563018          16000 
    237000   4837.8947      895306.51      1713.0761      898986.73      896711.29      890221.52      533.14786     -561.54427      99.382185      10004.926      19974.728      29979.654      116921.91      38.811042      38.811042      77.622084          16000 
    238000   4811.9597      904419.42      1720.6297      906302.6       896356.85      910598.82      74.414768      1253.9295      1332.7112      9951.2917      20144.416      30095.707      116759.52      38.793066      38.793066      77.586132          16000 
    239000   4858.2929      902859.25      1728.1819      900004.95      904129.36      904443.44      651.98369     -42.356122      777.55755      10047.11       20076.791      30123.901      116755.29      38.792597      38.792597      77.585193          16000 
    240000   4767.9264      906641.52      1735.7388      906513.65      909346.18      904064.74     -2729.1858      1329.2408      1318.6017      9860.2295      20138.317      29998.546      116658.87      38.781915      38.781915      77.563831          16000 
    241000   4784.2536      903168.83      1743.2917      903374.03      902859.94      903272.53      1275.0572      784.4722      -227.8564       9893.9945      20135.667      30029.661      116785.44      38.795936      38.795936      77.591873          16000 
    242000   4826.2664      903870.62      1750.8475      905423.17      901776.74      904411.96      644.43978     -1440.4137     -556.2515       9980.8784      20041.578      30022.456      116717.44      38.788405      38.788405      77.576811          16000 
    243000   4827.2395      893130.91      1758.403       891214.36      895777.23      892401.14     -384.13947      252.40604     -88.189749      9982.8909      20029.187      30012.078      117035.75      38.823634      38.823634      77.647268          16000 
    244000   4807.9643      891538.31      1765.9605      890260.25      893719.51      890635.18      387.21485     -708.12936     -98.777523      9943.0292      19997.942      29940.971      116973.21      38.816717      38.816717      77.633434          16000 
    245000   4791.4147      903089.62      1773.5145      905999.19      903384.15      899885.51     -1692.5714     -1531.0341      3132.2149      9908.8041      20106.154      30014.958      116667.8       38.782905      38.782905      77.56581           16000 
    246000   4810.5953      903132.26      1781.0691      896482.98      907535.51      905378.29     -283.23898      463.31802      130.06628      9948.4702      20142.102      30090.573      116790.92      38.796543      38.796543      77.593087          16000 
    247000   4726.5047      905692.43      1788.6247      907626.32      904448.75      905002.23     -1358.6564     -428.38564      1083.581       9774.568       20204.342      29978.91       116765.17      38.793692      38.793692      77.587384          16000 
    248000   4802.4087      900641.33      1796.18        900150.11      901168.92      900604.96     -1084.8072     -977.83322      1860.2091      9931.5399      20123.771      30055.311      116816.34      38.799358      38.799358      77.598715          16000 
    249000   4771.1913      898701.13      1803.7335      894888.07      905126.68      896088.63      995.99173     -735.26466      2928.3044      9866.9812      20096.742      29963.724      116856.97      38.803855      38.803855      77.60771           16000 
    250000   4837.4144      894120.21      1811.2859      891595.81      890395.61      900369.22      1310.4343      297.38663      1093.4755      10003.933      19945.416      29949.349      117048.12      38.825002      38.825002      77.650004          16000 
    251000   4788.473       896350.9       1818.8382      899055.89      893005.34      896991.48     -2235.1905     -12.305035      1767.7368      9902.7205      20015.669      29918.389      116861.01      38.804303      38.804303      77.608606          16000 
    252000   4842.1492      890330.19      1826.3913      887893.15      890873.3       892224.13     -1229.4368      887.15053     -140.77632      10013.725      20007.022      30020.747      117083.66      38.828931      38.828931      77.657862          16000 
    253000   4744.7334      900696.99      1833.9477      900668.58      895125.75      906296.65      1748.622      -1769.4788     -1193.8127      9812.2656      20111.6        29923.866      116859.81      38.80417       38.80417       77.60834           16000 
    254000   4789.9112      903264.17      1841.5057      905228.5       904677.59      899886.43      1507.6765     -847.74126      2528.891       9905.6947      20257.777      30163.472      116884.14      38.806863      38.806863      77.613725          16000 
    255000   4798.7472      902223.32      1849.0645      896457.84      904446.78      905765.34     -1521.5781      213.28071      557.75578      9923.9678      20018.671      29942.639      116674.76      38.783676      38.783676      77.567353          16000 
    256000   4817.0368      899112.77      1856.6171      898728.82      899261.53      899347.96      1320.7384     -610.27953     -418.13228      9961.7913      20076.449      30038.24       116825.24      38.800343      38.800343      77.600686          16000 
    257000   4812.3257      905442.49      1864.1686      908115.27      900438.8       907773.39      794.0757       1379.237      -448.38058      9952.0487      20111.811      30063.859      116780.6       38.7954        38.7954        77.5908            16000 
    258000   4750.1741      899627.35      1871.7185      897545.19      900908.32      900428.56     -562.70548      199.29127     -260.30051      9823.517       20016.627      29840.144      116792.72      38.796742      38.796742      77.593485          16000 
    259000   4825.7965      894159.67      1879.2661      895158.57      897397.12      889923.33     -2337.9782     -572.35158      1116.4207      9979.9068      20010.59       29990.497      117009.01      38.820677      38.820677      77.641355          16000 
    260000   4774.8791      894308.53      1886.8142      895530.06      892690.98      894704.55      970.89204     -366.20059      204.39422      9874.6078      20052.742      29927.349      116938.74      38.812904      38.812904      77.625808          16000 
    261000   4792.9739      894843.34      1894.361       895407.02      897652.89      891470.11      591.28416     -614.89239     -1004.723       9912.0285      20030.547      29942.576      116893.91      38.807943      38.807943      77.615886          16000 
    262000   4806.2976      899286.07      1901.91        900889.82      900040.27      896928.12      904.30241     -696.64358      943.24657      9939.5823      20071.108      30010.69       116842.32      38.802234      38.802234      77.604468          16000 
    263000   4784.3679      904600.15      1909.4625      905868.74      903174.28      904757.44     -1428.6256     -3440.999      -584.85912      9894.231       20054.073      29948.304      116653.13      38.781279      38.781279      77.562558          16000 
    264000   4795.4656      901599.94      1917.0168      906582.09      898536.14      899681.58     -319.71775      45.717572      2284.2584      9917.1813      20120.392      30037.573      116764.17      38.79358       38.79358       77.58716           16000 
    265000   4792.8203      897810.67      1924.5692      897628.7       897002.57      898800.75      2508.3811     -644.7735       516.48851      9911.7108      20038.006      29949.717      116904.34      38.809098      38.809098      77.618195          16000 
    266000   4782.6623      897315.04      1932.122       894608.14      895590.36      901746.63      148.69721      1387.8295      137.72235      9890.7039      19960.941      29851.645      116784.07      38.795785      38.795785      77.591569          16000 
    267000   4763.3063      893597.02      1939.6701      890369.99      897520.98      892900.09      681.57582      1436.793      -322.72826      9850.6748      20045.994      29896.668      117005.5       38.820288      38.820288      77.640577          16000 
    268000   4785.3789      906302.73      1947.2219      907956.82      907878.08      903073.29      479.89139     -1479.8341      1101.272       9896.3218      20109.577      30005.899      116678.37      38.784077      38.784077      77.568154          16000 
    269000   4847.8699      901052.01      1954.7737      897073.36      903652.2       902430.47     -1408.7383      13.267379      1333.115       10025.555      20062.86       30088.415      116835.33      38.801459      38.801459      77.602919          16000 
    270000   4851.6771      906501.43      1962.3311      907836.53      913058.57      898609.19     -980.3228      -304.43253      855.22421      10033.429      20135.367      30168.795      116678.58      38.7841        38.7841        77.5682            16000 
    271000   4813.4038      905841.2       1969.8814      906645.21      904569.05      906309.34     -175.31353      1509.6381      2013.5359      9954.2781      20156.66       30110.938      116735.02      38.790352      38.790352      77.580703          16000 
    272000   4817.0279      897483.97      1977.4278      899916.8       894376.61      898158.51     -2577.6901      117.54466      553.78304      9961.773       20055.136      30016.909      116963         38.815588      38.815588      77.631175          16000 
    273000   4821.1279      895337.7       1984.9757      895438.77      895418.88      895155.45     -676.58801      1920.4214      953.58731      9970.2518      19993.699      29963.951      116931.15      38.812064      38.812064      77.624128          16000 
    274000   4805.0113      900176.93      1992.5311      897132.39      899510.65      903887.77     -1754.281       894.05825     -778.87621      9936.9222      19984.032      29920.954      116798.45      38.797376      38.797376      77.594752          16000 
    275000   4795.5788      898547.76      2000.0854      898245.47      897499.45      899898.36      605.97804      2792.6702     -403.46885      9917.4154      20063.51       29980.925      116831.33      38.801017      38.801017      77.602035          16000 
    276000   4770.1343      894182.17      2007.6396      891375.97      897989.24      893181.29      218.97034      680.27569      999.16261      9864.7955      20001.06       29865.856      116895.59      38.80813       38.80813       77.616259          16000 
    277000   4799.1341      895377.57      2015.1871      900388.15      894572.49      891172.07      284.09751      790.20091     -675.76353      9924.7679      19935.817      29860.585      116918.09      38.81062       38.81062       77.621239          16000 
    278000   4790.9264      889741.27      2022.7377      893424.62      891973.57      883825.63      1683.8749     -131.34692      932.27312      9907.7941      19974.892      29882.686      117068.77      38.827285      38.827285      77.654569          16000 
    279000   4787.5154      902101.68      2030.288       899522.46      903322.38      903460.19     -946.34002      1280.2294      832.28131      9900.7401      20130.392      30031.132      116790.03      38.796444      38.796444      77.592889          16000 
    280000   4814.2746      907523.93      2037.8372      905361.17      906494.54      910716.08      65.134211      2503.3469      1505.3157      9956.0791      20225.136      30181.216      116761.57      38.793293      38.793293      77.586586          16000 
    281000   4799.1126      902372.26      2045.3918      902368.32      895677.99      909070.47     -214.82359     -627.88887     -2242.0014      9924.7235      20152.256      30076.98       116822.61      38.800052      38.800052      77.600104          16000 
    282000   4817.8912      896633.56      2052.9407      892028.94      901748.55      896123.19     -74.079912      623.05884      1063.8878      9963.5583      20057.161      30020.72       116933.97      38.812376      38.812376      77.624753          16000 
    283000   4792.3335      892478.3       2060.4989      895440.56      887987.37      894006.96     -1121.4033     -1091.3827      384.15583      9910.7041      19998.293      29908.997      117016.4       38.821494      38.821494      77.642987          16000 
    284000   4827.1449      898365.02      2068.0477      900506.47      897788.58      896800        -2479.7387      192.98474     -1822.5631      9982.6953      19989.068      29971.763      116840.63      38.802046      38.802046      77.604092          16000 
    285000   4844.0242      898007.51      2075.5991      896083.06      897025.88      900913.6       605.95063      865.23106     -423.49943      10017.602      19924.81       29942.412      116689.79      38.785341      38.785341      77.570683          16000 
[...]
   3930000   4562.94        899677.28      7028.8519      893928.97      893231.07      911871.81     -2324.1601      873.56172      453.87966      9436.3109      25118.576      34554.887      122077.44      38.934181      38.934181      80.532897          16000 
   3931000   4532.8479      906164.55      7036.4085      893556.14      902037.02      922900.51      1126.4632      4034.6305      1189.2071      9374.0792      25208.921      34583          122024.17      38.928517      38.928517      80.521182          16000 
   3932000   4573.5196      909323.55      7043.9673      898564.52      901358.52      928047.62     -3555.0152      660.06025      6001.6187      9458.1898      25153.689      34611.879      121973.11      38.923086      38.923086      80.509949          16000 
   3933000   4578.596       911024.13      7051.5258      902643.81      907388.05      923040.52     -1919.9711     -721.80681     -747.50523      9468.6878      25222.592      34691.279      121832.05      38.908076      38.908076      80.478901          16000 
   3934000   4526.6854      909187.31      7059.0837      898930.27      898750.82      929880.84      1873.8924     -2962.955       5449.8863      9361.3351      25239.198      34600.533      121990.04      38.924888      38.924888      80.513675          16000 
   3935000   4550.7553      906500.62      7066.6432      895671.21      897166.37      926664.26     -1680.5823      1161.8685     -2712.0795      9411.1124      25102.581      34513.693      122144.52      38.941311      38.941311      80.547646          16000 
   3936000   4540.012       898618.42      7074.2039      892551.29      892112.72      911191.25     -2797.2784      4154.2856     -1450.668       9388.8949      25101.662      34490.557      122183.62      38.945466      38.945466      80.55624           16000 
   3937000   4527.1403      895780.58      7081.7675      893837.63      883740.1       909764.01     -3267.0791     -7342.1699      1827.6648      9362.2757      25058.988      34421.263      122305.49      38.95841       38.95841       80.583014          16000 
   3938000   4537.9584      900658.93      7089.3305      894542.36      890893.52      916540.91      885.49856      3583.3567      3146.0859      9384.648       25130.425      34515.073      122137.61      38.940577      38.940577      80.546127          16000 
   3939000   4545.8244      901673.34      7096.8891      895623.02      891494.35      917902.66      4365.3541     -6711.7108     -1163.0116      9400.9151      25117.547      34518.462      122131.09      38.939884      38.939884      80.544694          16000 
   3940000   4533.5285      903756.51      7104.4512      897753.98      894611.52      918904.03      2390.669       3325.5306      1848.9354      9375.4868      25136.086      34511.573      122142.43      38.941089      38.941089      80.547186          16000 
   3941000   4532.226       907901.6       7112.0101      900210.12      899642.66      923852.04      734.76947     -1445.4319     -4948.1174      9372.7931      25165.832      34538.625      122092.97      38.935832      38.935832      80.536313          16000 
   3942000   4588.3574      908675.08      7119.5682      904424.71      899677.11      921923.42     -5398.8836     -1043.408       2029.4351      9488.8749      25159.751      34648.626      121896.59      38.914946      38.914946      80.493111          16000 
   3943000   4593.6224      911083.4       7127.1294      904753.21      904207.16      924289.85      41.759283     -960.51243      405.15585      9499.763       25150.441      34650.204      121892.44      38.914504      38.914504      80.492197          16000 
   3944000   4535.486       900249.26      7134.689       901208.26      889425.58      910113.95      1099.9922      3742.5381      1713.3265      9379.535       25135.577      34515.112      122131.67      38.939946      38.939946      80.544822          16000 
   3945000   4515.1711      910562.53      7142.2471      902484.38      903846.3       925356.9       4687.5684     -3058.8597     -2041.7608      9337.5231      25282.035      34619.558      121945.58      38.920158      38.920158      80.503892          16000 
   3946000   4536.0698      902240.95      7149.8034      892892.38      893040.15      920790.32     -115.91298     -102.62375      2529.231       9380.7423      25138.419      34519.161      122123.76      38.939104      38.939104      80.543081          16000 
   3947000   4515.7788      911406.13      7157.3579      901616.72      899147.6       933454.06     -965.13073     -1170.5504      2250.2841      9338.7799      25288.102      34626.882      121932.24      38.918739      38.918739      80.500957          16000 
   3948000   4551.7327      908286.59      7164.9176      897219.3       900896.86      926743.61      1136.0821      4861.5279      792.73424      9413.1336      25236.534      34649.668      121891.23      38.914374      38.914374      80.491929          16000 
   3949000   4491.3588      903836.71      7172.4719      903750.51      890416.35      917343.26      465.45939     -1082.9833     -2655.1209      9288.2785      25227.876      34516.155      122124.25      38.939157      38.939157      80.54319           16000 
   3950000   4565.608       902476.53      7180.0304      894013.29      893166.28      920250.03      1227.4386      655.25423      1769.3003      9441.8283      25061.642      34503.47       122146.68      38.941541      38.941541      80.548121          16000 
   3951000   4509.7231      898278.87      7187.5856      889032.93      885980.81      919822.86      1188.2438     -2600.2523      516.09656      9326.2564      25115.405      34441.661      122256.41      38.953198      38.953198      80.572233          16000 
   3952000   4537.097       895642.18      7195.1417      887634.68      888731.28      910560.56     -3302.0393     -936.79438     -4366.9235      9382.8665      25062.635      34445.502      122248.77      38.952387      38.952387      80.570556          16000 
   3953000   4468.7593      893495.66      7202.7001      881143.2       888419.38      910924.4      -1843.0182      1485.1527      4976.2396      9241.542       25107.732      34349.274      122419.35      38.970495      38.970495      80.608011          16000 
   3954000   4532.9776      894538.58      7210.256       889223.08      886661.31      907731.36      2449.395      -1248.4916     -6347.3575      9374.3475      24996.028      34370.376      122380.29      38.966351      38.966351      80.599439          16000 
   3955000   4458.4302      902378.12      7217.8112      890123.62      894826.08      922184.66     -851.23823     -427.48925      5246.1078      9220.1811      25232.916      34453.097      122230.82      38.95048       38.95048       80.566612          16000 
   3956000   4528.6695      900193.93      7225.3704      894756.68      887312.98      918512.13     -766.48782     -295.41563     -4734.6581      9365.4383      25090.759      34456.197      122224.05      38.949761      38.949761      80.565124          16000 
   3957000   4491.2144      900870.7       7232.926       892583.2       888561.54      921467.36     -1170.1464     -923.42707      5359.5767      9287.9799      25177.776      34465.756      122206         38.947844      38.947844      80.561159          16000 
   3958000   4545.025       893302.52      7240.4794      887422.25      888113.04      904372.25      1388.7332     -795.37203     -4525.109       9399.262       24974.361      34373.623      122368.41      38.96509       38.96509       80.596831          16000 
   3959000   4510.0817      892223.83      7248.0328      885432.91      886446.68      904791.91     -978.51208     -2012.3157      4513.6503      9326.998       25053.862      34380.86       122353.54      38.963511      38.963511      80.593565          16000 
   3960000   4485.2493      891585.43      7255.5892      887940.33      879660.97      907154.99     -2863.2935     -153.93605      2100.3518      9275.6438      25053.305      34328.949      122444.91      38.973207      38.973207      80.613621          16000 
   3961000   4501.2156      894277.49      7263.1434      889780.02      882496.01      910556.46      1068.0054      1315.823       73.617333      9308.6627      25068.564      34377.226      122356.35      38.963809      38.963809      80.594182          16000 
   3962000   4542.7156      900711.52      7270.6967      890658.77      892946.67      918529.13      740.46782      2550.4499      6275.5828      9394.4859      25082.461      34476.947      122178.39      38.94491       38.94491       80.555091          16000 
   3963000   4499.9996      897238.1       7278.2518      887055.02      891777.55      912881.74     -233.3779      -1043.847      -2641.1232      9306.148       25097.632      34403.78       122306.96      38.958566      38.958566      80.583338          16000 
   3964000   4533.3446      897159.34      7285.8087      889349.71      888056.39      914071.9      -1248.5271     -680.052       -2010.9348      9375.1064      25053.54       34428.646      122262.14      38.953806      38.953806      80.573492          16000 
   3965000   4473.2393      897473.64      7293.3633      889750.1       887771.17      914899.67     -61.622479      1617.6119      2897.0817      9250.8068      25174.276      34425.083      122264.96      38.954106      38.954106      80.574112          16000 
   3966000   4512.2246      901470.33      7300.9193      896099.24      896560.51      911751.25      1854.7011      1989.0087      866.53047      9331.4296      25169.978      34501.408      122128.24      38.93958       38.93958       80.544066          16000 
   3967000   4520.9846      894328         7308.4762      891804.6       885915.19      905264.19     -3794.284      -2498.146       8564.4529      9349.5456      25058.737      34408.283      122293.01      38.957085      38.957085      80.580274          16000 
   3968000   4494.7293      896554.21      7316.0345      891155         884963.85      913543.77      1538.7204     -3707.676       1392.3361      9295.2488      25129.598      34424.847      122263.03      38.953901      38.953901      80.573688          16000 
   3969000   4517.8089      897468.92      7323.5929      892623.68      884437.29      915345.79      1520.4107      2274.1089     -2577.428       9342.9783      25082.732      34425.71       122261.15      38.953701      38.953701      80.573274          16000 
   3970000   4553.2843      896036.82      7331.1535      895069.12      883147.54      909893.79     -2909.2981      1739.6436      1732.3889      9416.3425      25030.421      34446.764      122222.59      38.949606      38.949606      80.564803          16000 
   3971000   4523.9386      900923.43      7338.7088      897811.8       892825.56      912132.93     -1808.9627      7690.7408     -1360.4727      9355.6545      25118.006      34473.66       122173.01      38.944338      38.944338      80.553908          16000 
   3972000   4499.2025      903051.13      7346.264       894971.73      891461.13      922720.52     -427.58176     -194.98462     -4581.7179      9304.4995      25198.694      34503.193      122118.09      38.938502      38.938502      80.541835          16000 
   3973000   4581.3002      891455.28      7353.8245      882392.79      887264.97      904708.08     -2429.74       -886.18857      1850.6254      9474.2804      24947.89       34422.171      122262.74      38.953871      38.953871      80.573624          16000 
   3974000   4548.0621      894692.16      7361.3788      889771.03      882636.37      911669.07      241.12063      265.5384      -2503.5335      9405.5428      25001.349      34406.892      122289.23      38.956683      38.956683      80.579442          16000 
   3975000   4536.6186      899802.82      7368.9357      891568.37      889738.57      918101.51     -660.7813       2294.9289      1364.3033      9381.8772      25072.006      34453.883      122203.93      38.947623      38.947623      80.560702          16000 
   3976000   4527.874       896663.3       7376.5005      885107.87      895165.53      909716.5       3390.6474      1400.5972     -9346.2455      9363.7931      25039.404      34403.197      122294.26      38.957218      38.957218      80.580548          16000 
   3977000   4559.6117      895179.37      7384.0617      886314.42      887323.25      911900.43     -4251.8789     -132.43007      2502.093       9429.4278      24976.292      34405.719      122289.94      38.956758      38.956758      80.579598          16000 
   3978000   4503.8069      894020.67      7391.621       884524.07      887544.02      909993.91      3261.2312      797.30228      806.59069      9314.0216      25077.227      34391.249      122315.51      38.959474      38.959474      80.585215          16000 
   3979000   4545.5238      898242.99      7399.1799      893716.79      892364.35      908647.83      750.89359     -424.93132     -2386.4758      9400.2935      25042.477      34442.771      122223.04      38.949653      38.949653      80.564902          16000 
   3980000   4555.0084      899861.93      7406.7333      897121.7       886653.02      915811.08      1707.4608     -599.59863      1208.1482      9419.908       25059.346      34479.254      122157.78      38.942721      38.942721      80.550561          16000 
   3981000   4538.4959      907911.74      7414.2856      895671.03      901042.66      927021.53      2889.1386      387.80237      1731.0469      9385.7597      25169.502      34555.262      122021.8       38.928265      38.928265      80.52066           16000 
   3982000   4558.9493      914518.26      7421.8403      901800.03      906442.15      935312.61      1439.275      -3113.0797     -4197.3871      9428.0579      25218.691      34646.749      121860.47      38.911102      38.911102      80.485159          16000 
   3983000   4526.3115      905192.46      7429.3988      896290.96      897668.4       921618.02      153.55235     -1506.0189      1735.7581      9360.5619      25195.343      34555.904      122020.67      38.928145      38.928145      80.520413          16000 
   3984000   4573.714       902573.79      7436.9587      888216.46      900754.06      918750.86      1063.9597      669.31904     -5776.7286      9458.5918      25102.163      34560.755      122007.09      38.926701      38.926701      80.517426          16000 
   3985000   4519.6585      903582.98      7444.5156      894898.69      897906.52      917943.73     -2774.8906     -837.84128     -4114.4889      9346.8033      25158.828      34505.631      122102.56      38.936851      38.936851      80.538421          16000 
   3986000   4521.4944      903517.35      7452.0732      890008.21      892941.92      927601.93      1546.7853      5951.6889      3808.4578      9350.6         25163.847      34514.447      122086.37      38.93513       38.93513       80.534861          16000 
   3987000   4476.3915      906410.37      7459.632       901524.37      897867.98      919838.76     -2978.5247     -4080.3455      1304.6401      9257.3256      25257.346      34514.671      122084.12      38.934891      38.934891      80.534367          16000 
   3988000   4525.9074      903191.31      7467.1898      892718.52      902030.22      914825.19     -2641.2394     -787.52635      765.73425      9359.7262      25097.125      34456.851      122184.21      38.945529      38.945529      80.556369          16000 
   3989000   4545.524       901882.28      7474.7513      891828         891265.46      922553.38      3001.1354      2006.8431     -1641.66        9400.2939      25072.842      34473.136      122154.7       38.942393      38.942393      80.549884          16000 
   3990000   4509.367       900011.53      7482.31        895204.5       891794.72      913035.36     -2790.751      -697.34139      9795.9575      9325.52        25109.385      34434.905      122222.09      38.949552      38.949552      80.564692          16000 
   3991000   4470.5015      895143.98      7489.8704      884833.44      892525.1       908073.4      -1928.5635      2466.73       -2845.24        9245.1449      25126.873      34372.018      122334.27      38.961465      38.961465      80.589334          16000 
   3992000   4496.7245      894108.68      7497.4264      883549.08      889343.09      909433.88      1746.0096     -1403.239       4494.015       9299.3749      25075.064      34374.439      122329.29      38.960937      38.960937      80.58824           16000 
   3993000   4505.027       895183.55      7504.9831      888955.09      883803.53      912792.03     -825.58318     -325.44342      804.26291      9316.5448      25058.532      34375.077      122328.29      38.960831      38.960831      80.588021          16000 
   3994000   4551.6254      906094.69      7512.5386      905050.35      896735.94      916497.78     -2014.4003      1842.6431      645.7586       9412.9118      25140.914      34553.826      122009.79      38.926988      38.926988      80.518019          16000 
   3995000   4559.1934      905829.06      7520.098       894052.72      899842.66      923591.79      3821.0918      1306.4519     -879.23877      9428.5626      25129.163      34557.726      122002.16      38.926176      38.926176      80.51634           16000 
   3996000   4590.4975      909199.64      7527.6622      901402.82      899813.12      926382.97      1329.4438      4662.9385     -1905.2694      9493.3006      25141.322      34634.622      121864.01      38.911479      38.911479      80.485939          16000 
   3997000   4533.219       901226.49      7535.224       896393.99      888999.02      918286.46     -1026.7525     -5817.2238      475.5945       9374.8469      25175.56       34550.407      122012.27      38.927251      38.927251      80.518564          16000 
   3998000   4516.5015      903989.38      7542.7838      895827.3       892852.26      923288.58     -729.40554      1683.7188      291.71321      9340.2745      25118.846      34459.12       122174.46      38.944492      38.944492      80.554226          16000 
   3999000   4558.9413      904903.45      7550.342       899389.54      895814.92      919505.89      1902.6016     -1468.1533      4968.8082      9428.0414      25098.343      34526.384      122053.97      38.931686      38.931686      80.527737          16000 
   4000000   4549.1604      910926.89      7557.9027      906986.8       903185.24      922608.62     -3394.1253      6424.6317     -2159.5784      9407.8141      25211.349      34619.163      121888.31      38.914064      38.914064      80.491288          16000 
Loop time of 7557.9 on 8 procs for 1000000 steps with 16000 atoms

Performance: 5.716 ns/day, 4.199 hours/ns, 132.312 timesteps/s
60.5% CPU use with 1 MPI tasks x 8 OpenMP threads

MPI task timing breakdown:
Section |  min time  |  avg time  |  max time  |%varavg| %total
---------------------------------------------------------------
Pair    | 7281       | 7281       | 7281       |   0.0 | 96.34
Neigh   | 13.435     | 13.435     | 13.435     |   0.0 |  0.18
Comm    | 39.965     | 39.965     | 39.965     |   0.0 |  0.53
Output  | 1.2708     | 1.2708     | 1.2708     |   0.0 |  0.02
Modify  | 199.13     | 199.13     | 199.13     |   0.0 |  2.63
Other   |            | 23.14      |            |       |  0.31

Nlocal:          16000 ave       16000 max       16000 min
Histogram: 1 0 0 0 0 0 0 0 0 0
Nghost:          15439 ave       15439 max       15439 min
Histogram: 1 0 0 0 0 0 0 0 0 0
Neighs:              0 ave           0 max           0 min
Histogram: 1 0 0 0 0 0 0 0 0 0
FullNghs:  1.87851e+06 ave 1.87851e+06 max 1.87851e+06 min
Histogram: 1 0 0 0 0 0 0 0 0 0

Total # of neighbors = 1878512
Ave neighs/atom = 117.407
Neighbor list builds = 36382
Dangerous builds = 0
Total wall time: 8:27:17
