
atom_style atomic
units metal
boundary p p p
#atom_modify sort 0 0.0
newton on

read_data data.lammps
Reading data file ...
  orthogonal box = (0 0 0) to (43.790145 43.790145 87.58029)
  1 by 1 by 1 MPI processor grid
  reading atoms ...
  16004 atoms
  read_data CPU = 0.039 seconds
# replicate 10 10 20

### interactions

pair_style flare
pair_coeff * * lmp.flare
Reading potential file lmp.flare with DATE: Thu

# compute unc all flare/std/atom L_inv_lmp.flare sparse_desc_lmp.flare
# compute MaxUnc all reduce max c_unc

mass 1 12.011000
mass 2 28.085000

thermo_style custom step temp press cpu pxx pyy pzz pxy pxz pyz ke pe etotal vol lx ly lz atoms    #c_MaxUnc
thermo 1000
timestep 0.0005
restart 100000 restart_*.dat

#################### Equilibrate at P and T_es ##############################
velocity all create $T 41928459 rot yes dist gaussian
velocity all create 3200 41928459 rot yes dist gaussian
fix mom all momentum 1000 linear 1 1 1 angular

fix 1 all npt temp $T $T $(100.0*dt) iso $P $P $(1000.0*dt)
fix 1 all npt temp 3200 $T $(100.0*dt) iso $P $P $(1000.0*dt)
fix 1 all npt temp 3200 3200 $(100.0*dt) iso $P $P $(1000.0*dt)
fix 1 all npt temp 3200 3200 0.050000000000000002776 iso $P $P $(1000.0*dt)
fix 1 all npt temp 3200 3200 0.050000000000000002776 iso 300000 $P $(1000.0*dt)
fix 1 all npt temp 3200 3200 0.050000000000000002776 iso 300000 300000 $(1000.0*dt)
fix 1 all npt temp 3200 3200 0.050000000000000002776 iso 300000 300000 0.5
dump 1 all custom 1000 1equil.bin id type x y z vx vy vz
run   10000 # report performance
Neighbor list info ...
  update every 1 steps, delay 10 steps, check yes
  max neighbors/atom: 2000, page size: 100000
  master list distance cutoff = 6
  ghost atom cutoff = 6
  binsize = 6, bins = 8 8 15
  1 neighbor lists, perpetual/occasional/extra = 1 0 0
  (1) pair flare/kk, perpetual
      attributes: full, newton on, kokkos_device
      pair build: full/bin/kk/device
      stencil: full/bin/3d
      bin: kk/device
Per MPI rank memory allocation (min/avg/max) = 15.9 | 15.9 | 15.9 Mbytes
   Step          Temp          Press           CPU            Pxx            Pyy            Pzz            Pxy            Pxz            Pyz           KinEng         PotEng         TotEng         Volume           Lx             Ly             Lz          Atoms   
         0   3200           62295.48       0              61920.045      62313.853      62652.542     -790.80119      8.8236366     -494.42354      6619.3603     -4000.2205      2619.1398      167941.93      43.790145      43.790145      87.58029           16004 
      1000   3158.768       299470.53      6.4124601      300150.47      298925.64      299335.48     -822.58918      1965.6798      2987.1836      6534.0699      4198.3344      10732.404      155841.27      42.712091      42.712091      85.424182          16004 
      2000   3179.7749      298448.26      12.804634      299604.38      297621.43      298118.96     -415.45562      719.97415     -1121.7894      6577.5237      4021.309       10598.833      155843.81      42.712322      42.712322      85.424645          16004 
      3000   3226.0075      302562.62      19.197645      303690.17      301835.57      302162.12      1239.8824     -594.11283      176.17991      6673.1581      3881.879       10555.037      155698.16      42.699013      42.699013      85.398025          16004 
      4000   3223.3958      298607.32      25.590201      297351.8       298284.75      300185.42     -1633.3588      1959.0138     -145.8422       6667.7556      3989.5285      10657.284      155849.02      42.712799      42.712799      85.425598          16004 
      5000   3190.2632      300752.28      31.978011      302081.98      300953.54      299221.32      2117.8882     -169.21946     -1048.0848      6599.2193      3928.5316      10527.751      155698.13      42.69901       42.69901       85.39802           16004 
      6000   3221.4245      299430.65      38.365881      299393.6       300108.18      298790.16      326.69222      441.36969      4222.3434      6663.6779      4047.3338      10711.012      155859.84      42.713787      42.713787      85.427575          16004 
      7000   3171.9158      301013.74      44.755767      300556.38      301480.53      301004.3      -1555.7574     -121.88298     -3020.8523      6561.2667      3946.7802      10508.047      155690.41      42.698304      42.698304      85.396607          16004 
      8000   3232.1241      300107.86      51.147838      297654.17      300620.6       302048.81      537.89665     -1871.1141      1557.6209      6685.8105      4032.8954      10718.706      155724.41      42.701411      42.701411      85.402822          16004 
      9000   3214.6212      303172.58      57.542031      301752.14      303494.9       304270.71      3095.1833      731.60239     -926.47548      6649.605       3957.0384      10606.643      155545.21      42.685026      42.685026      85.370051          16004 
     10000   3222.5869      300271.05      63.937036      300564.45      299322.33      300926.37      1326.9926      1255.4944     -1423.6567      6666.0824      3983.0647      10649.147      155752.8       42.704006      42.704006      85.408013          16004 
Loop time of 63.9371 on 8 procs for 10000 steps with 16004 atoms

Performance: 6.757 ns/day, 3.552 hours/ns, 156.404 timesteps/s
61.5% CPU use with 1 MPI tasks x 8 OpenMP threads

MPI task timing breakdown:
Section |  min time  |  avg time  |  max time  |%varavg| %total
---------------------------------------------------------------
Pair    | 60.933     | 60.933     | 60.933     |   0.0 | 95.30
Neigh   | 0.080626   | 0.080626   | 0.080626   |   0.0 |  0.13
Comm    | 0.34888    | 0.34888    | 0.34888    |   0.0 |  0.55
Output  | 0.013018   | 0.013018   | 0.013018   |   0.0 |  0.02
Modify  | 2.2951     | 2.2951     | 2.2951     |   0.0 |  3.59
Other   |            | 0.2659     |            |       |  0.42

Nlocal:          16004 ave       16004 max       16004 min
Histogram: 1 0 0 0 0 0 0 0 0 0
Nghost:          13619 ave       13619 max       13619 min
Histogram: 1 0 0 0 0 0 0 0 0 0
Neighs:              0 ave           0 max           0 min
Histogram: 1 0 0 0 0 0 0 0 0 0
FullNghs:  1.47653e+06 ave 1.47653e+06 max 1.47653e+06 min
Histogram: 1 0 0 0 0 0 0 0 0 0

Total # of neighbors = 1476528
Ave neighs/atom = 92.259935
Neighbor list builds = 258
Dangerous builds = 0
run  990000
Per MPI rank memory allocation (min/avg/max) = 16.08 | 16.08 | 16.08 Mbytes
   Step          Temp          Press           CPU            Pxx            Pyy            Pzz            Pxy            Pxz            Pyz           KinEng         PotEng         TotEng         Volume           Lx             Ly             Lz          Atoms   
     10000   3222.5869      300271.05      0              300564.45      299322.33      300926.37      1326.9926      1255.4944     -1423.6567      6666.0824      3983.0647      10649.147      155752.8       42.704006      42.704006      85.408013          16004 
     11000   3178.4862      293334.48      6.3922894      292999.95      294422.99      292580.48      2654.1948     -529.50676     -1890.0972      6574.858       3934.8793      10509.737      156061.93      42.73224       42.73224       85.46448           16004 
     12000   3155.0138      297772.14      12.785301      299085.94      296229.87      298000.6       1451.086      -135.41618      51.409331      6526.3042      4041.7432      10568.047      155898.17      42.717288      42.717288      85.434577          16004 
     13000   3191.7251      301301.66      19.176759      300889.07      301258.56      301757.35     -356.82416      1944.9986      676.61871      6602.2433      4022.5468      10624.79       155733.89      42.702279      42.702279      85.404557          16004 
     14000   3218.1922      301672.31      25.571152      302160.59      300523.42      302332.91     -777.05536     -1115.3985      75.322119      6656.9918      4015.9931      10672.985      155654.26      42.694999      42.694999      85.389998          16004 
     15000   3217.7807      300474.92      31.965101      299795.87      300396.66      301232.23     -1048.5965      1741.7444     -247.61014      6656.1406      4000.1774      10656.318      155701.44      42.699312      42.699312      85.398624          16004 
     16000   3181.6238      297314.77      38.356071      296105.76      297533.25      298305.3      -1010.5772      1354.0743     -614.99779      6581.3482      3939.8022      10521.15       155852.45      42.713112      42.713112      85.426224          16004 
     17000   3200.9594      295763.47      44.74723       295273.51      296368.8       295648.09      1216.9532     -1033.0564     -2741.005       6621.3449      4002.6949      10624.04       156002.21      42.726788      42.726788      85.453576          16004 
     18000   3198.6368      299979.04      51.140454      300328.46      300079.91      299528.76     -710.66826      110.69307      507.70002      6616.5404      3927.8749      10544.415      155730.34      42.701954      42.701954      85.403907          16004 
     19000   3234.3796      303227.38      57.534083      303539.97      303484.37      302657.8       60.027045     -3028.9875     -2724.616       6690.4763      3977.7378      10668.214      155566.96      42.687015      42.687015      85.37403           16004 
     20000   3221.2561      303960.54      63.928066      303578.2       304124.93      304178.48     -753.50993     -365.20461     -847.84848      6663.3297      3979.054       10642.384      155546.2       42.685116      42.685116      85.370233          16004 
     21000   3192.8387      298050.87      70.324082      298946.78      297622.92      297582.91      257.01356     -1646.0203      1518.98        6604.5468      4009.9173      10614.464      155920.05      42.719287      42.719287      85.438573          16004 
     22000   3182.4517      298293.74      76.717988      297710.87      298488.47      298681.89      798.20303      951.13437      1989.1083      6583.0607      3912.4388      10495.5        155869.11      42.714634      42.714634      85.429268          16004 
     23000   3221.1617      298327.11      83.111325      298026.43      298747.28      298207.64      1855.3505      37.019282     -937.42045      6663.1344      4001.2688      10664.403      155866.1       42.714359      42.714359      85.428718          16004 
     24000   3186.2221      301901.05      89.505753      301346.55      303038.22      301318.37     -1091.5175      1841.8195      594.6863       6590.86        3984.9866      10575.847      155641.31      42.693814      42.693814      85.387629          16004 
     25000   3243.4939      303624.38      95.898232      303924.9       302882.39      304065.86      1118.2658      29.311312      1076.5713      6709.3297      3959.7435      10669.073      155590.28      42.689148      42.689148      85.378296          16004 
     26000   3197.0871      300364.08      102.2903       301875.73      300067.16      299149.36      2986.5713      1456.6229      1584.8081      6613.3349      4037.4517      10650.787      155679.56      42.697312      42.697312      85.394624          16004 
     27000   3191.0801      297228.41      108.6849       297864.45      295445.87      298374.89      722.68089      658.77368     -1176.5511      6600.909       3934.8962      10535.805      155812.37      42.70945       42.70945       85.4189            16004 
     28000   3219.1882      297025.6       115.07757      296225.82      297027.72      297823.25     -393.33453     -1233.5309     -1405.1568      6659.0522      3864.3565      10523.409      155780.73      42.706559      42.706559      85.413118          16004 
     29000   3218.0491      299363.23      121.47186      300436.04      298290.75      299362.9      -97.275422     -2799.4235      484.73501      6656.6957      4010.5824      10667.278      155837.57      42.711753      42.711753      85.423505          16004 
     30000   3193.1334      302339.15      127.86709      303120.46      302282.5       301614.48     -549.00326     -1562.4124     -1954.3376      6605.1565      3959.9417      10565.098      155576.4       42.687878      42.687878      85.375757          16004 
     31000   3224.4159      303099.13      134.26009      302782.42      304015.79      302499.17     -156.37379      4684.4553      4410.6528      6669.8659      4008.21        10678.076      155544.89      42.684996      42.684996      85.369992          16004 
     32000   3173.7305      302520.36      140.64916      302875.27      302409.33      302276.47      615.67492      1512.7949     -2123.281       6565.0206      3974.5337      10539.554      155593.85      42.689474      42.689474      85.378949          16004 
     33000   3201.3398      296728.73      147.03953      295526.19      296881.57      297778.42     -58.076067      832.85534      2380.8381      6622.1318      3956.8948      10579.027      155937.71      42.7209        42.7209        85.441799          16004 
     34000   3187.7596      298964.08      153.43059      299001.52      298572.47      299318.25      1059.2691     -2690.9766     -2039.5801      6594.0405      3974.8844      10568.925      155796.9       42.708036      42.708036      85.416073          16004 
     35000   3218.4892      301813.55      159.82203      303074.79      301531.4       300834.45     -639.64301     -1494.0523      3205.0362      6657.6061      3976.7316      10634.338      155737.2       42.702581      42.702581      85.405161          16004 
     36000   3176.3552      302430.65      166.21186      301782         303146.08      302363.86      386.78298     -4155.0849      99.400307      6570.4498      3965.5376      10535.987      155518.6       42.682592      42.682592      85.365184          16004 
     37000   3190.8049      302913.13      172.60471      304208.18      302450.24      302080.95     -299.9928       2859.398       1882.9112      6600.3397      4073.5156      10673.855      155610.72      42.691017      42.691017      85.382034          16004 
     38000   3173.983       297189.21      178.99585      295549.51      298341.66      297676.46      1775.9297      744.3744       59.241182      6565.5429      3964.1778      10529.721      155875.87      42.715251      42.715251      85.430502          16004 
     39000   3207.7012      294361.13      185.38453      293861.37      295640.02      293582.02     -701.0344       391.72128     -1573.4856      6635.2907      3978.1682      10613.459      156045.44      42.730735      42.730735      85.461469          16004 
     40000   3224.0089      301174.02      191.77111      301004.19      301571.21      300946.66     -640.4997       328.27508      1138.2436      6669.024       3896.2426      10565.267      155674.45      42.696845      42.696845      85.393689          16004 
     41000   3243.0962      303755.71      198.16424      303146.79      302417.82      305702.53     -1052.9971     -1788.1438      2463.6582      6708.507       3945.8876      10654.395      155585.52      42.688713      42.688713      85.377426          16004 
     42000   3167.949       301492.03      204.55768      300104.24      301863.95      302507.9       2037.0145      1279.1977     -1438.6846      6553.0611      4004.8098      10557.871      155598.58      42.689907      42.689907      85.379814          16004 
     43000   3222.4747      298370.09      210.95072      297014.49      299899.14      298196.65     -751.67894      2410.7531      271.15945      6665.8504      3984.0347      10649.885      155783.98      42.706856      42.706856      85.413712          16004 
     44000   3181.063       299271.27      217.34359      298705.41      299727.83      299380.57      2544.763      -1060.4791     -941.28344      6580.1883      3922.3077      10502.496      155650.85      42.694687      42.694687      85.389375          16004 
     45000   3241.4559      303721.93      223.73359      303844.43      303842.43      303478.93      1311.1538     -994.08562     -49.449959      6705.1139      3982.0519      10687.166      155551.78      42.685627      42.685627      85.371254          16004 
     46000   3175.6043      304855.13      230.12622      306348.85      302925.02      305291.51      296.75502     -554.59099     -981.47756      6568.8966      4087.7778      10656.674      155436.78      42.675105      42.675105      85.35021           16004 
     47000   3179.599       298731.21      236.51731      298852.85      299372.7       297968.09      496.80675     -3019.2414      307.79954      6577.1598      3914.4233      10491.583      155750.42      42.703789      42.703789      85.407577          16004 
     48000   3225.6316      299025.48      242.90316      298997.31      299765.92      298313.22     -1715.0328      1132.9002     -1426.3201      6672.3805      3969.1197      10641.5        155842.14      42.71217       42.71217       85.424339          16004 
     49000   3188.7722      301093.78      249.29011      301224.35      301147.9       300909.1       2699.2609     -2311.707       1716.6209      6596.1351      4050.9249      10647.06       155739.52      42.702793      42.702793      85.405586          16004 
     50000   3217.3209      302482.42      255.68098      302166.36      300921.5       304359.38     -1433.289       432.61849      1464.2155      6655.1894      3964.773       10619.962      155563.64      42.686712      42.686712      85.373423          16004 
     51000   3167.99        299492.42      262.06923      300565.08      299081.63      298830.55      1296.934       77.181139      823.83005      6553.1461      4086.2343      10639.38       155782.42      42.706713      42.706713      85.413427          16004 
     52000   3172.9709      296950.46      268.45696      297930.22      297125.9       295795.25     -883.59285      927.81861     -1197.618       6563.4492      3928.2875      10491.737      155871.72      42.714872      42.714872      85.429745          16004 
     53000   3186.9017      297036.29      274.84457      298416.56      296524.55      296167.77      2342.6874      2156.5832     -498.80844      6592.2658      3982.3737      10574.639      155890.07      42.716549      42.716549      85.433097          16004 
     54000   3227.6658      300005.17      281.23642      298790.16      300056.94      301168.4      -881.73784      447.8837      -903.20421      6676.5884      3974.88        10651.468      155780.74      42.70656       42.70656       85.413119          16004 
     55000   3202.1543      299649.85      287.62835      298939.43      301472.34      298537.77      2594.5451     -772.44066      1133.1024      6623.8166      4029.9657      10653.782      155713.45      42.70041       42.70041       85.40082           16004 
     56000   3196.9843      302050.09      294.0148       301761.8       302150.72      302237.75     -696.47879     -704.43153      534.41278      6613.1222      3966.076       10579.198      155551.19      42.685573      42.685573      85.371145          16004 
     57000   3248.3852      305152.76      300.40435      305875.11      304003.99      305579.19      409.61436     -2045.2873      790.5487       6719.4476      3992.995       10712.443      155439.15      42.675321      42.675321      85.350643          16004 
     58000   3212.8585      300384.46      306.79277      300057.67      299897.08      301198.64      74.761138      1490.0844     -593.70408      6645.9588      3965.9956      10611.954      155741.89      42.703009      42.703009      85.406019          16004 
     59000   3193.6223      295075.42      313.18292      293980.08      296460.74      294785.43      186.30806      916.66825      1984.1497      6606.1678      4074.8673      10681.035      156126.3       42.738114      42.738114      85.476229          16004 
     60000   3169.001       297950.72      319.5727       299398.35      297644.26      296809.55      883.25531      1057.4627     -150.39055      6555.2373      4062.4677      10617.705      155855.55      42.713395      42.713395      85.426791          16004 
     61000   3177.0748      300199.68      325.9631       298382.73      300131.89      302084.42      2181.2145     -1280.14       -320.78678      6571.9384      4006.2213      10578.16       155700.99      42.699271      42.699271      85.398542          16004 
     62000   3208.5096      303340.47      332.35484      303854.19      303280.86      302886.35      4514.4637     -4574.7547      1756.5114      6636.9628      4023.2843      10660.247      155523.92      42.683078      42.683078      85.366156          16004 
     63000   3221.7783      303176.28      338.74321      302523.47      304205.62      302799.75     -1898.1984     -756.53053      1825.2865      6664.4099      4000.9307      10665.341      155550.36      42.685497      42.685497      85.370994          16004 
     64000   3256.9699      298308.74      345.13186      297667.07      297320.24      299938.9       517.57319     -5561.0527     -2048.4975      6737.2054      3954.9552      10692.161      155847.71      42.712678      42.712678      85.425357          16004 
     65000   3206.7052      295785.88      351.52185      296437.85      296169.22      294750.56     -2131.1332     -3317.4452     -2196.8783      6633.2304      3913.1977      10546.428      155949.98      42.72202       42.72202       85.444039          16004 
     66000   3199.0658      298884.53      357.91343      298221.5       297888.78      300543.3       726.73149     -2104.7319      264.63989      6617.4279      3981.3606      10598.788      155777.09      42.706226      42.706226      85.412452          16004 
     67000   3227.5122      302404.2       364.29988      302799.38      303264.85      301148.38     -1771.1141      618.63166     -611.40515      6676.2708      4068.3374      10744.608      155667.21      42.696182      42.696182      85.392365          16004 
     68000   3189.4496      302449.19      370.69061      302264.22      302289.13      302794.23     -1243.4614     -1801.988      -141.69633      6597.5364      4039.1062      10636.643      155569.38      42.687237      42.687237      85.374474          16004 
     69000   3213.7952      301956.08      377.0823       303370.08      301339.2       301158.98      284.24321     -1615.1182      373.20844      6647.8964      3982.8983      10630.795      155615.27      42.691434      42.691434      85.382867          16004 
     70000   3219.1701      295802         383.47332      294030.84      296376.86      296998.29      915.59534     -153.24774     -283.41125      6659.0146      3970.1088      10629.123      155962.5       42.723163      42.723163      85.446325          16004 
     71000   3235.7003      297948.31      389.85832      297597.38      297797.85      298449.7      -4222.7937     -524.07799     -362.46057      6693.2081      3962.9137      10656.122      155874.62      42.715137      42.715137      85.430274          16004 
     72000   3189.6464      300879.92      396.24301      301041.16      299754.98      301843.64     -3372.7543     -835.16877     -1128.5286      6597.9435      3999.3396      10597.283      155592.19      42.689323      42.689323      85.378646          16004 
     73000   3217.783       302999.78      402.62897      303245.58      303871.43      301882.33     -1484.5638      452.09574      2877.5891      6656.1453      4037.3593      10693.505      155582.78      42.688462      42.688462      85.376925          16004 
     74000   3172.8089      300974.9       409.01999      301294.13      300767.71      300862.85      1554.3827      930.80136      895.47185      6563.1142      4003.6618      10566.776      155652.23      42.694813      42.694813      85.389626          16004 
     75000   3182.2786      296101.24      415.41009      294663.84      296981.88      296658        -2817.1085      2367.8008     -55.754875      6582.7026      3925.2426      10507.945      155954.83      42.722463      42.722463      85.444925          16004 
     76000   3186.004       298221.28      421.80133      298764.14      298465.11      297434.59     -428.69246     -836.3679       684.40574      6590.409       4015.6683      10606.077      155873.67      42.71505       42.71505       85.4301            16004 
     77000   3218.2503      302945.47      428.19199      302709.7       302575.79      303550.93      1190.0196     -1267.2143     -1975.2587      6657.1119      4005.3714      10662.483      155599.21      42.689965      42.689965      85.37993           16004 
     78000   3213.0216      305580.43      434.58302      304843.19      306758.03      305140.07      1346.5277     -519.89812      1819.2983      6646.2962      4010.0765      10656.373      155434.03      42.674853      42.674853      85.349706          16004 
     79000   3150.6555      301551.22      440.98563      300523.81      301293.09      302836.76      2213.8155     -279.3535       892.37966      6517.2887      4081.9271      10599.216      155647.97      42.694424      42.694424      85.388847          16004 
     80000   3244.7132      296608.89      447.37549      296884.27      298145.8       294796.6      -664.5836       941.86808     -1228.5162      6711.8519      4022.6775      10734.529      155948.92      42.721923      42.721923      85.443846          16004 
     81000   3183.0342      299203.67      453.767        300494.78      298762.82      298353.42     -3269.3647      2341.6879     -463.53552      6584.2658      4008.6937      10592.959      155809.58      42.709195      42.709195      85.41839           16004 
     82000   3174.977       302413         460.15582      301454.02      304006.05      301778.93      457.58416      1702.9353     -616.03184      6567.599       3953.7566      10521.356      155585.79      42.688737      42.688737      85.377474          16004 
     83000   3206.5355      304192.23      466.5463       304093.63      303863.8       304619.27     -1517.7355      1126.0589     -2322.0846      6632.8792      4034.9682      10667.847      155513.42      42.682118      42.682118      85.364236          16004 
     84000   3174.9934      302197.19      472.93751      300456.34      303415.9       302719.35      1255.6589     -697.84606     -2324.8013      6567.6329      3966.3075      10533.94       155538.11      42.684377      42.684377      85.368753          16004 
     85000   3204.6882      297631.43      479.33057      297650.47      298742.83      296501         119.97315     -1986.6329      237.80231      6629.0581      3991.9561      10621.014      155947         42.721747      42.721747      85.443494          16004 
     86000   3146.8479      298239.71      485.71615      298527.69      298082.86      298108.57     -3082.7661      711.467       -2752.9453      6509.4126      3967.2627      10476.675      155798.07      42.708143      42.708143      85.416287          16004 
     87000   3219.8587      297458.54      492.10485      297766.11      298316.94      296292.56      786.43519      3554.8595      1500.4588      6660.4391      3980.2708      10640.71       155905.54      42.717961      42.717961      85.435922          16004 
     88000   3184.6588      300728.37      498.49076      302533.48      300314.74      299336.88      42.428533     -1751.0205      4595.4082      6587.6263      3979.8937      10567.52       155717.31      42.700763      42.700763      85.401526          16004 
     89000   3191.9926      302559.35      504.87476      303226.31      302716.76      301734.98      572.00971     -1427.895      -428.18969      6602.7965      4062.0193      10664.816      155660.5       42.695569      42.695569      85.391139          16004 
     90000   3222.0686      305659.89      511.26164      305824.04      305686.59      305469.05     -869.77443     -1311.1123      1329.9987      6665.0104      4043.4857      10708.496      155479.44      42.679009      42.679009      85.358018          16004 
     91000   3201.4405      299513.64      517.65105      298794.4       299114.01      300632.5       1263.506       806.31729      1313.0038      6622.3401      3988.3068      10610.647      155715.31      42.70058       42.70058       85.40116           16004 
     92000   3202.9475      297898.81      524.03877      297337.88      297262.71      299095.83     -2049.7309     -1380.5364      1114.7707      6625.4574      4060.0752      10685.533      155910.92      42.718452      42.718452      85.436905          16004 
     93000   3195.4488      295427.21      530.42769      296160.17      294217.24      295904.22      1770.3888      43.884022     -1795.9969      6609.9459      3943.1208      10553.067      155964.75      42.723369      42.723369      85.446737          16004 
     94000   3189.3313      298099.81      536.81329      297275.22      298322.67      298701.53      1793.3669      792.68282      136.12901      6597.2917      4054.7339      10652.026      155866.2       42.714368      42.714368      85.428736          16004 
     95000   3197.3338      301884.54      543.20242      301395.63      302789.85      301468.14     -2110.673       519.07598      2384.6148      6613.8451      3984.7759      10598.621      155596.02      42.689673      42.689673      85.379346          16004 
     96000   3203.9831      300620.77      549.58998      299615.74      300121.56      302125        -4.6209623      2568.202       2053.6193      6627.5995      4044.2731      10671.873      155720.19      42.701026      42.701026      85.402051          16004 
     97000   3227.92        304657.62      555.97501      303842.89      306879.94      303250.03     -2290.8974      333.10977      2759.2739      6677.1142      3982.6245      10659.739      155469.02      42.678055      42.678055      85.35611           16004 
     98000   3207.3867      298555.91      562.36085      298319.31      298689.73      298658.68      186.5509       1228.5477      650.29354      6634.6401      3976.2597      10610.9        155805.41      42.708814      42.708814      85.417627          16004 
     99000   3181.0243      295918.29      568.74426      297231.63      295770.8       294752.45     -679.1838       462.50197      443.69621      6580.1081      3918.6733      10498.781      155894.7       42.716971      42.716971      85.433942          16004 
    100000   3206.4659      298320.13      575.1325       298636.98      297388.05      298935.37      417.36343      2613.2604     -3167.2217      6632.7354      4029.6619      10662.397      155842.05      42.712162      42.712162      85.424323          16004 
    101000   3218.6249      305283.47      581.51674      305496.85      304389.84      305963.71      2903.8072     -1546.5648      890.85042      6657.8869      3955.1581      10613.045      155493.14      42.680262      42.680262      85.360524          16004 
    102000   3170.7804      303174.91      587.90289      302617.35      303118.14      303789.24      246.93456      1917.1312     -1998.5117      6558.9181      4066.6595      10625.578      155523.18      42.683011      42.683011      85.366022          16004 
    103000   3166.3334      300638.17      594.2932       301428.87      301373.69      299111.96      744.76568      1329.0631     -1300.4679      6549.7192      4006.5908      10556.31       155577.88      42.688014      42.688014      85.376027          16004 
    104000   3222.0838      299891.86      600.68408      301281.74      299333.18      299060.67     -2764.7755      2014.0508      260.42884      6665.0417      3987.6853      10652.727      155817.95      42.70996       42.70996       85.41992           16004 
    105000   3166.9845      295135.28      607.07209      294637.55      295912.68      294855.63      1594.1098     -1585.1162      2811.5605      6551.0661      3915.282       10466.348      156010.5       42.727545      42.727545      85.45509           16004 
    106000   3195.8052      297971.45      613.4589       297443.09      298113.78      298357.49      3454.189      -559.64435     -743.43081      6610.6831      3941.5201      10552.203      155853.24      42.713184      42.713184      85.426369          16004 
    107000   3197.2012      299375.35      619.84349      299557.79      299269.87      299298.41      1864.6021     -462.76842     -2267.7154      6613.5708      4006.4585      10620.029      155805.12      42.708788      42.708788      85.417575          16004 
    108000   3199.9032      301694.49      626.22583      302525.49      301459         301098.97      1093.633       2428.871      -1485.4519      6619.1601      3969.1391      10588.299      155550.75      42.685532      42.685532      85.371065          16004 
    109000   3168.8614      302478.21      632.61381      301332.96      303157.76      302943.91     -4086.02       -357.99382      3604.1542      6554.9487      3988.465       10543.414      155566.03      42.68693       42.68693       85.37386           16004 
    110000   3185.0442      297080.4       639.01269      298491.68      297229.29      295520.22     -1328.4549      374.96942     -666.53703      6588.4235      3986.7911      10575.215      155853.1       42.713171      42.713171      85.426342          16004 
    111000   3170.1972      294489.78      645.40045      295063.67      294176.08      294229.59     -209.45856     -1866.815      -111.08319      6557.7118      3963.0427      10520.755      155980.72      42.724827      42.724827      85.449653          16004 
    112000   3204.9328      295807.64      651.78538      295349.29      294735.32      297338.32     -870.90337     -743.40871      755.5105       6629.5641      4016.5814      10646.146      155983.96      42.725122      42.725122      85.450245          16004 
    113000   3187.6249      303390.64      658.17437      302993.65      302983.25      304195.02     -3109.3395     -949.94644      2091.2418      6593.7618      4059.2265      10652.988      155480.51      42.679107      42.679107      85.358214          16004 
    114000   3197.807       301887.05      664.56414      300134.24      302159.98      303366.92      1836.9352      2114.2327      1173.2994      6614.824       4109.7631      10724.587      155624         42.692232      42.692232      85.384463          16004 
    115000   3218.0075      301004.32      670.94987      302378.48      300479.46      300155.02      2355.3571      4.0271867     -1145.9438      6656.6097      3938.6006      10595.21       155681.25      42.697466      42.697466      85.394932          16004 
    116000   3200.011       297354.32      677.33471      297782.65      296270.42      298009.89      3887.4873     -966.97976      313.15032      6619.3831      4037.6154      10656.998      155952.74      42.722271      42.722271      85.444543          16004 
    117000   3200.8495      299006.3       683.72432      298315.5       298592.3       300111.11     -1533.3354      125.96874      3022.1283      6621.1176      3964.5104      10585.628      155831.56      42.711203      42.711203      85.422406          16004 
    118000   3198.5448      299683.9       690.11292      299360.91      300531.77      299159.03      1606.3384     -2008.38        34.751461      6616.3502      3975.9199      10592.27       155744.47      42.703245      42.703245      85.406491          16004 
    119000   3218.4391      304731.87      696.50257      305912.88      305883.07      302399.64     -2935.8004      155.51992     -3035.636       6657.5026      3988.2283      10645.731      155528.55      42.683502      42.683502      85.367004          16004 
    120000   3197.2814      302601.34      702.89249      302656.81      302703.1       302444.09      97.581171      2156.9295     -1008.5072      6613.7367      4024.7116      10638.448      155606.96      42.690674      42.690674      85.381348          16004 
    121000   3212.9554      295929.88      709.28295      294914.63      296247.69      296627.33      198.76276     -464.96763     -267.99116      6646.1593      3953.5498      10599.709      156050.87      42.731231      42.731231      85.462461          16004 
    122000   3235.3629      293267.65      715.67033      292289.35      295601.65      291911.96      288.94722      191.5884      -3161.0731      6692.5103      3846.993       10539.503      156145.87      42.7399        42.7399        85.479801          16004 
    123000   3218.3036      300866.86      722.05863      301378.99      299716.56      301505.03      0.29399823     2601.5422     -1404.6213      6657.2223      3986.2211      10643.443      155748.15      42.703582      42.703582      85.407163          16004 
    124000   3197.7263      304603.27      728.44735      305805.51      304015.72      303988.58     -534.94643      4477.6447     -214.92309      6614.657       4019.6165      10634.274      155517.76      42.682514      42.682514      85.365029          16004 
    125000   3206.1565      301543.92      734.83365      302317.06      302177.04      300137.64      1031.6807     -2066.5517      51.743988      6632.0953      4001.3769      10633.472      155706.09      42.699737      42.699737      85.399474          16004 
    126000   3204.7185      299023.32      741.22071      299549.66      298200.74      299319.56      179.85987     -1929.7681     -803.44276      6629.1208      3999.4498      10628.571      155853.94      42.713248      42.713248      85.426497          16004 
    127000   3201.2853      301131.47      747.60802      299474.41      301887.71      302032.29     -821.10714      26.909289     -2310.888       6622.0191      3996.3817      10618.401      155595.92      42.689664      42.689664      85.379327          16004 
    128000   3230.3667      303868.39      753.99474      304905.51      303449.34      303250.31     -2639.302      -1560.5118     -1046.7467      6682.1754      4067.7421      10749.918      155496.89      42.680605      42.680605      85.361211          16004 
    129000   3162.6583      302895.86      760.38213      302799.74      303613.29      302274.56     -1609.585      -720.8503      -1954.3769      6542.1171      4069.9023      10612.019      155569.49      42.687246      42.687246      85.374493          16004 
    130000   3173.9858      296569.98      766.77019      296979.28      296454.07      296276.57     -2763.3141      746.6175       2557.8722      6565.5486      4009.7452      10575.294      155866.53      42.714398      42.714398      85.428796          16004 
    131000   3187.6494      297487.62      773.15489      297341.29      298239.13      296882.42     -125.41558     -538.79119     -1899.6718      6593.8125      3997.782       10591.595      155843.21      42.712268      42.712268      85.424535          16004 
    132000   3209.9712      298827.07      779.54083      298314.55      298931.33      299235.32      737.34436     -1411.3203      2361.8075      6639.9862      4009.2199      10649.206      155819.64      42.710114      42.710114      85.420228          16004 
    133000   3180.917       302003.21      785.92579      302205.23      303914.44      299889.94      2053.1761      964.93115     -603.44288      6579.8861      4022.6468      10602.533      155606.19      42.690603      42.690603      85.381206          16004 
    134000   3214.9599      300088.26      792.31212      299262.13      299383.53      301619.12     -2653.89        940.62434      417.75674      6650.3057      3995.2512      10645.557      155795.92      42.707947      42.707947      85.415895          16004 
    135000   3180.4759      297077.49      798.69585      295214.5       296419.77      299598.2       1466.402       1167.7534      597.05487      6578.9738      3978.0075      10556.981      155875.89      42.715253      42.715253      85.430506          16004 
    136000   3194.2015      298010.27      805.08194      298306.61      297460.35      298263.85     -544.45427     -364.76404      31.4284        6607.3659      3946.8698      10554.236      155828.45      42.710919      42.710919      85.421839          16004 
    137000   3197.3091      300930.36      811.4715       299608.7       301479.41      301702.97     -64.062783     -1050.2949     -3049.6798      6613.7941      4054.3238      10668.118      155733.82      42.702272      42.702272      85.404543          16004 
    138000   3158.9971      308669.85      817.85832      310294.03      307778.82      307936.71     -1463.7227      408.64407     -2175.737       6534.5438      4139.1847      10673.729      155262.91      42.659187      42.659187      85.318375          16004 
    139000   3187.7805      302880.42      824.24421      303202.69      304109.96      301328.62      1659.5013     -1638.8883      2105.8472      6594.0836      3966.8311      10560.915      155438.9       42.675299      42.675299      85.350598          16004 
    140000   3191.5899      298582.73      830.63109      299456         296574.65      299717.55     -1.482628      -254.33131      263.48708      6601.9636      4003.6878      10605.651      155731.43      42.702053      42.702053      85.404106          16004 
    141000   3152.3154      299915.78      837.02003      300268.72      298941.8       300536.81      2158.9367     -295.01151     -140.96241      6520.7223      3905.6456      10426.368      155633.12      42.693066      42.693066      85.386132          16004 
    142000   3219.2106      300178.21      843.40824      301007.2       298417.99      301109.44      2950.5697     -1038.8211     -191.41659      6659.0985      3995.7985      10654.897      155762.71      42.704912      42.704912      85.409824          16004 
    143000   3185.9682      297416.13      849.79266      298138.51      298582.9       295526.99     -1670.5995     -1451.0414     -977.62003      6590.3348      3938.2906      10528.625      155917.39      42.719044      42.719044      85.438087          16004 
    144000   3231.603       295771.43      856.17515      296947.93      297276.86      293089.51      394.96395      2396.7957      381.95361      6684.7328      3868.9738      10553.707      155974.81      42.724287      42.724287      85.448574          16004 
    145000   3237.6159      299425.53      862.56406      299119.79      299995.34      299161.46     -4770.1496      3259.7669     -1835.463       6697.1706      4050.7282      10747.899      155858.22      42.713639      42.713639      85.427278          16004 
    146000   3172.8094      303332.05      868.95066      304393.2       302591.08      303011.87      1857.7499     -552.18581     -157.73592      6563.1152      4012.2166      10575.332      155565.27      42.686861      42.686861      85.373721          16004 
    147000   3223.7223      308396.28      875.33714      309827.79      306754.25      308606.8      -1082.8194     -23.877848      1029.3284      6668.4312      4082.8433      10751.274      155348.74      42.667046      42.667046      85.334092          16004 
    148000   3165.7108      301406.81      881.72545      299897.13      302331         301992.31     -1852.6058     -1141.3214     -42.981597      6548.4315      4033.8711      10582.303      155660.92      42.695608      42.695608      85.391215          16004 
    149000   3196.9879      297709.46      888.11146      296935.09      299837.74      296355.56     -986.56849      686.19348      2201.6183      6613.1296      3976.6218      10589.751      155904.9       42.717903      42.717903      85.435805          16004 
    150000   3210.4074      296960.99      894.49913      297462.57      297423.71      295996.68      1228.0967     -2418.278       2068.3444      6640.8886      3916.0289      10556.917      155891.16      42.716648      42.716648      85.433296          16004 
    151000   3219.9206      297572.98      900.88854      297965.69      296821.09      297932.17      1413.0559     -329.73955     -4902.3945      6660.567       3965.7504      10626.317      155920.28      42.719308      42.719308      85.438615          16004 
    152000   3159.8366      304994.94      907.27928      306803.3       304654.21      303527.31     -1297.6374      3909.4831     -2210.7937      6536.2803      3982.175       10518.455      155443.65      42.675734      42.675734      85.351467          16004 
    153000   3223.4084      305517.92      913.6674       304595.38      306608.82      305349.54      2348.2414      556.10033      277.38813      6667.7818      4000.0271      10667.809      155469.84      42.67813       42.67813       85.35626           16004 
    154000   3178.5093      301496.15      920.05677      302711.66      300571.83      301204.97     -845.07805      381.09081      827.49399      6574.9058      3971.006       10545.912      155630.15      42.692795      42.692795      85.385589          16004 
    155000   3226.2077      299029.67      926.44342      298013.67      301344.28      297731.04     -1869.5459     -1840.72       -167.66765      6673.5722      4009.2461      10682.818      155843.94      42.712335      42.712335      85.42467           16004 
    156000   3224.5754      300372.88      932.83549      300745.86      301251.12      299121.66     -983.36013      1944.867       2549.628       6670.1957      3889.0735      10559.269      155784.68      42.70692       42.70692       85.41384           16004 
    157000   3253.8306      298673.91      939.22724      298628.92      298003.04      299389.78      1240.4624      129.102        1680.0938      6730.7116      3960.9794      10691.691      155861.16      42.713908      42.713908      85.427816          16004 
    158000   3179.5846      302205.33      945.62169      302654.06      302235.23      301726.69     -448.63468     -206.64348     -394.43836      6577.13        4045.3044      10622.434      155626.32      42.692444      42.692444      85.384888          16004 
    159000   3211.8001      303455.27      952.01906      302548.3       303043.89      304773.62     -1403.0005      836.85389      827.86538      6643.7695      4028.8104      10672.58       155561.01      42.686471      42.686471      85.372943          16004 
    160000   3182.2975      297056.21      958.41488      297045.64      297125.71      296997.27     -839.5802       1309.5131     -310.60767      6582.7417      3962.3258      10545.067      155935.26      42.720675      42.720675      85.441351          16004 
    161000   3175.4426      298830.17      964.8116       299383.53      298856.03      298250.94      1020.2098     -222.08297      2916.9792      6568.562       3954.8112      10523.373      155829.28      42.710995      42.710995      85.42199           16004 
    162000   3200.6579      300683.73      971.21059      299858.95      301045.55      301146.7      -1624.8578      679.63386      305.0035       6620.7212      4025.5465      10646.268      155687.52      42.69804       42.69804       85.39608           16004 
    163000   3207.859       301724.01      977.60697      299980.18      303287.83      301904.03      781.52051     -2081.2382      2319.9922      6635.6171      4074.4761      10710.093      155648.03      42.69443       42.69443       85.388859          16004 
    164000   3160.886       301360.06      984.00253      300125.19      301088.3       302866.7      -465.62457      1766.685       317.79836      6538.451       4028.4135      10566.864      155674.3       42.696831      42.696831      85.393662          16004 
    165000   3183.5446      296488.5       990.39652      296429.73      295026.26      298009.5      -557.56635      2850.0299      702.30912      6585.3216      3984.3628      10569.684      155926.35      42.719862      42.719862      85.439724          16004 
    166000   3178.4777      292610.08      996.78843      291926.42      293884.75      292019.08     -1417.5277     -1683.0058      1532.0679      6574.8404      3867.3138      10442.154      156067.86      42.732781      42.732781      85.465563          16004 
    167000   3231.8258      298079.96      1003.1859      297592.8       299105.98      297541.09      2639.8065     -283.28383      1816.4803      6685.1937      3953.3982      10638.592      155866.22      42.714369      42.714369      85.428739          16004 
    168000   3199.9643      302384.54      1009.5793      302826.22      302467.71      301859.69     -662.91512      2430.1247      552.34415      6619.2865      3954.9896      10574.276      155603.36      42.690344      42.690344      85.380688          16004 
    169000   3206.4169      300716.24      1015.9765      301578.88      301653.27      298916.57      580.5415       1157.8763     -2020.8865      6632.634       4049.2169      10681.851      155735.16      42.702394      42.702394      85.404789          16004 
    170000   3195.9114      300269.34      1022.3694      301339.37      299961.6       299507.04     -1004.3456     -1.1113162     -156.59351      6610.9029      4010.9412      10621.844      155755.88      42.704288      42.704288      85.408576          16004 
    171000   3191.7449      299851.69      1028.7582      300865.73      298711.52      299977.81     -574.3858      -897.66778     -2913.3259      6602.2842      3941.8486      10544.133      155721.95      42.701187      42.701187      85.402374          16004 
    172000   3207.6908      300334.22      1035.1478      299455.05      300640.4       300907.22      354.98112      2256.9261     -1971.148       6635.2691      4027.433       10662.702      155681.18      42.69746       42.69746       85.394921          16004 
    173000   3182.6832      303258.75      1041.5411      302128         303711.16      303937.08      1301.9031      3088.0875      362.24214      6583.5396      4032.899       10616.439      155530.87      42.683714      42.683714      85.367428          16004 
    174000   3176.0512      303473.37      1047.9336      303508.63      305306.56      301604.93     -2463.8281      445.23049      1177.173       6569.821       4025.6141      10595.435      155592.5       42.689351      42.689351      85.378702          16004 
    175000   3206.529       300026.32      1054.3254      299697.94      299896.87      300484.16     -494.25122      2420.3932      2014.8767      6632.8659      3985.4511      10618.317      155741.36      42.702961      42.702961      85.405921          16004 
    176000   3167.2612      295209.23      1060.7193      294508.35      296805.85      294313.49     -2883.2089      25.643991     -549.90665      6551.6385      3953.5043      10505.143      155995.34      42.726161      42.726161      85.452322          16004 
    177000   3211.8661      299254.76      1067.1122      298517.42      298616.43      300630.42      1293.9065     -429.6622      -786.96933      6643.9059      3993.0934      10636.999      155786.02      42.707042      42.707042      85.414084          16004 
    178000   3209.4143      306765.31      1073.5021      308342.1       306111.89      305841.95      549.28631      78.489617     -317.62891      6638.8343      3992.8565      10631.691      155395.96      42.671369      42.671369      85.342737          16004 
    179000   3192.5343      302338.16      1079.8907      301678.04      303363.62      301972.83      1647.8898     -274.01645     -772.67278      6603.9172      4000.386       10604.303      155615.85      42.691487      42.691487      85.382974          16004 
    180000   3189.0404      298225.8       1086.2788      297835.38      299662.49      297179.53     -629.79761     -1109.0408     -578.64202      6596.6898      4112.6295      10709.319      155911         42.718459      42.718459      85.436919          16004 
    181000   3190.3118      296731.46      1092.6661      297819.67      296289.53      296085.19      1030.8915     -1204.3897      2493.4199      6599.3199      3948.3309      10547.651      155877.53      42.715403      42.715403      85.430805          16004 
    182000   3210.8049      299330.25      1099.0626      297402.43      302084.88      298503.42     -2417.4153     -517.9373      -1991.5772      6641.7108      4028.2459      10669.957      155843.89      42.71233       42.71233       85.424659          16004 
    183000   3198.7633      301606.53      1105.4531      301950.27      301929.13      300940.19     -36.830264     -93.973053      967.98549      6616.8021      3976.7058      10593.508      155620.5       42.691912      42.691912      85.383823          16004 
    184000   3164.8994      304501.45      1111.8449      303547.81      303706.64      306249.9       3360.4865      4922.3043     -276.57623      6546.7529      4058.4541      10605.207      155515.45      42.682304      42.682304      85.364608          16004 
    185000   3220.1822      301623.76      1118.2332      301456.59      303043.55      300371.12     -2338.2876      1628.0838      1538.1635      6661.1082      4000.8127      10661.921      155673.42      42.69675       42.69675       85.3935            16004 
    186000   3192.5891      299588.85      1124.6224      299953.39      300119.99      298693.18      2099.2514      1404.9579     -1512.2736      6604.0304      3951.551       10555.581      155642.95      42.693965      42.693965      85.38793           16004 
    187000   3233.6205      297337.98      1131.011       298330.76      297268.04      296415.14     -2565.3426      152.35616     -1861.4682      6688.9059      3968.071       10656.977      155955.21      42.722497      42.722497      85.444994          16004 
    188000   3223.433       295095.99      1137.3974      295385.77      295130.08      294772.12     -576.75552     -3404.5247     -161.40508      6667.8327      3894.7658      10562.598      155975.4       42.724341      42.724341      85.448681          16004 
    189000   3214.2672      296494.33      1143.7854      296173.17      296006.3       297303.52      656.34225     -478.29802     -538.84716      6648.8728      4059.3527      10708.225      155956.16      42.722584      42.722584      85.445168          16004 
    190000   3185.7781      302154.43      1150.1719      302881.47      302576.98      301004.84     -1474.1517     -1595.7981      1291.8074      6589.9417      4025.453       10615.395      155591.31      42.689242      42.689242      85.378485          16004 
    191000   3213.3898      299371.97      1156.562       299198.08      299030.9       299886.94     -476.38925      715.39007      960.48251      6647.0578      4064.4449      10711.503      155793.24      42.707702      42.707702      85.415404          16004 
    192000   3202.239       302226.83      1162.9514      302664.49      301725.1       302290.9       1769.1619      941.99981      87.82397       6623.9917      3949.9942      10573.986      155639.6       42.693659      42.693659      85.387317          16004 
    193000   3237.2852      300218.28      1169.3399      300426.9       299785.11      300442.82      1735.6872     -799.00199      904.52354      6696.4866      4028.0897      10724.576      155706.47      42.699772      42.699772      85.399543          16004 
    194000   3215.0241      299861.72      1175.7284      301105.6       299780.24      298699.31      1619.1509     -278.5581      -1118.202       6650.4385      3975.6045      10626.043      155728.62      42.701797      42.701797      85.403594          16004 
    195000   3191.2675      299957.1       1182.1154      300279.61      299822.97      299768.72      1880.9676      1282.6203     -267.03427      6601.2967      3948.2493      10549.546      155683.32      42.697656      42.697656      85.395312          16004 
    196000   3214.3302      299946.57      1188.5045      299726.23      299038.49      301074.99     -2987.785       611.35601     -2241.8238      6649.003       4014.2206      10663.224      155723.61      42.701339      42.701339      85.402678          16004 
    197000   3208.5246      298448.57      1194.8898      299816.95      298058.12      297470.65     -549.95303      428.86936      1727.6364      6636.9939      3900.8036      10537.797      155738.87      42.702733      42.702733      85.405466          16004 
    198000   3175.5023      296158.33      1201.2786      295354.4       297560.79      295559.79     -812.42276      255.43633     -1307.7911      6568.6855      3932.1373      10500.823      155939.72      42.721083      42.721083      85.442166          16004 
    199000   3200.8272      297433.04      1207.6648      298684.98      296982.29      296631.83      85.558389     -613.03856     -1058.1323      6621.0715      3966.7195      10587.791      155850.29      42.712915      42.712915      85.425829          16004 
    200000   3244.5611      303985.45      1214.0605      303383.51      303635.23      304937.62     -3293.979      -3040.9338      336.08764      6711.5372      4042.0236      10753.561      155638.98      42.693602      42.693602      85.387204          16004 
    201000   3207.6423      301836.14      1220.4487      302856.26      300471.49      302180.68     -401.40413      1733.5252      3361.2436      6635.1687      3992.1463      10627.315      155574.64      42.687718      42.687718      85.375435          16004 
    202000   3207.3493      297734.55      1226.8422      298123.59      297813.93      297266.15      2043.5566      1897.6863      947.53216      6634.5626      4018.2629      10652.826      155818.85      42.710042      42.710042      85.420085          16004 
    203000   3190.5088      300566.2       1233.2322      300379.3       300039.59      301279.71     -1421.6506     -3055.6288      996.42629      6599.7273      3990.7969      10590.524      155716.16      42.700658      42.700658      85.401315          16004 
    204000   3196.173       297941.8       1239.6199      298314.16      296425.17      299086.07     -541.20418     -62.674388      473.35706      6611.4439      3984.2636      10595.708      155835.87      42.711597      42.711597      85.423194          16004 
    205000   3214.7462      300158.94      1246.0115      299453.48      300273.84      300749.49     -402.25313      2497.6861      304.74374      6649.8635      4017.7106      10667.574      155747.4       42.703513      42.703513      85.407026          16004 
    206000   3213.6751      303734.39      1252.4037      304007.64      304914.7       302280.84     -322.36894     -1395.4033     -1817.0006      6647.648       4097.7655      10745.413      155548.37      42.685315      42.685315      85.37063           16004 
    207000   3196.5032      302232.96      1258.7948      303073.27      301936.36      301689.25     -139.34445      2110.0904     -675.8099       6612.1271      4009.3145      10621.442      155645.51      42.694199      42.694199      85.388397          16004 
    208000   3205.6254      295425.9       1265.1863      295320.51      296546.41      294410.79     -2559.6553     -436.31159     -810.85496      6630.9968      4012.4684      10643.465      156011.16      42.727606      42.727606      85.455212          16004 
    209000   3189.7731      297144.59      1271.579       296071.09      297480.28      297882.4      -2303.4646      312.13102     -667.35007      6598.2055      3947.5509      10545.756      155880.14      42.715641      42.715641      85.431282          16004 
    210000   3243.2256      298258.3       1277.9653      298746.88      297589.46      298438.55     -954.39108      1625.4267      340.59659      6708.7747      3980.0464      10688.821      155801.62      42.708468      42.708468      85.416936          16004 
    211000   3182.9664      300799.2       1284.3549      301373.11      300410.61      300613.87      304.49934      2033.9192      2138.9632      6584.1255      3905.469       10489.595      155620.47      42.691909      42.691909      85.383818          16004 
    212000   3224.7884      300438.79      1290.7458      299512.97      300781.28      301022.13     -949.84159     -2627.5024      223.45807      6670.6364      3983.1039      10653.74       155696.37      42.698848      42.698848      85.397696          16004 
    213000   3177.7704      305349.38      1297.1337      304779.87      304731.15      306537.12      2789.6247      149.82552      317.11539      6573.3773      4020.5622      10593.94       155434.68      42.674913      42.674913      85.349826          16004 
    214000   3215.2479      301496.33      1303.5217      301329.68      302230.94      300928.35      143.75679     -1855.0948      2574.7401      6650.9014      3983.2739      10634.175      155628.76      42.692667      42.692667      85.385334          16004 
    215000   3207.2064      295132.94      1309.9054      295067.94      294006.63      296324.27     -199.14618      848.81122     -741.79773      6634.2671      4016.1457      10650.413      156024.58      42.728831      42.728831      85.457662          16004 
    216000   3199.0499      296340.07      1316.2904      296239.48      295138.12      297642.6      -1937.4069      112.85016      2604.1685      6617.395       3921.1348      10538.53       155985.15      42.725231      42.725231      85.450463          16004 
    217000   3191.1532      299348.32      1322.6772      298655.66      298909.27      300480.02      2038.6525     -1627.9046      1875.1566      6601.0603      4048.7803      10649.841      155801.45      42.708452      42.708452      85.416904          16004 
    218000   3174.7662      301185.9       1329.0634      299991.39      302725.37      300840.95     -1916.0838      529.72007      2409.6466      6567.1629      3947.9968      10515.16       155604.09      42.690411      42.690411      85.380823          16004 
    219000   3202.2605      300875.41      1335.45        301981.4       300536.49      300108.34      266.44699     -1402.4209     -1642.2354      6624.0363      3985.8173      10609.854      155719.53      42.700965      42.700965      85.40193           16004 
    220000   3184.5002      301133.11      1341.8365      300647.53      300036.96      302714.85     -1287.0837     -3178.9048      1423.9318      6587.2983      3909.9683      10497.267      155669.38      42.696381      42.696381      85.392762          16004 
    221000   3182.1299      293099.29      1348.2243      292519.32      292575.81      294202.73     -2057.8838     -1685.3849      1202.3901      6582.395       3966.8525      10549.248      156093.95      42.735162      42.735162      85.470324          16004 
    222000   3205.4475      294539.49      1354.6119      295615.09      292855.86      295147.52     -1342.8509     -1137.5961      122.96796      6630.6287      3881.6964      10512.325      156014.11      42.727875      42.727875      85.45575           16004 
    223000   3191.4351      301549.95      1360.9981      300848.33      301946.58      301854.95     -300.87306      1559.2465     -602.42195      6601.6435      3989.7215      10591.365      155643.44      42.694009      42.694009      85.388019          16004 
    224000   3212.78        301264.93      1367.3866      302288.4       301398.88      300107.5      -2875.3699     -1475.9667     -2208.7531      6645.7964      4013.284       10659.08       155729.03      42.701834      42.701834      85.403668          16004 
    225000   3182.7265      301619.52      1373.7743      304484.37      300517.01      299857.19      1266.0839      429.53134      1778.8401      6583.6293      3999.689       10583.318      155679.67      42.697322      42.697322      85.394644          16004 
    226000   3199.2203      297476.34      1380.1629      298567.12      296331.72      297530.17      1214.1724     -320.19683      1760.7432      6617.7474      4000.9782      10618.726      155867.5       42.714486      42.714486      85.428973          16004 
    227000   3218.1235      296611.69      1386.5539      295495.47      297448.75      296890.83      429.20351      342.34056     -768.04204      6656.8497      3981.1739      10638.024      155954.27      42.722412      42.722412      85.444823          16004 
    228000   3219.4085      300896         1392.9441      300104.64      301381.94      301201.42     -114.22831      197.02135     -805.23584      6659.5077      3934.5824      10594.09       155701.68      42.699334      42.699334      85.398668          16004 
    229000   3224.55        302285.35      1399.3366      301382.7       302717.67      302755.69     -1687.8227     -841.06667      241.70278      6670.1431      3992.1995      10662.343      155652.31      42.694821      42.694821      85.389642          16004 
    230000   3225.845       301207.25      1405.7257      302045.57      300678.77      300897.39     -1951.7937     -1511.8183     -788.13927      6672.8221      3972.9252      10645.747      155707.97      42.699909      42.699909      85.399817          16004 
    231000   3216.3375      298816.81      1412.1134      299964.96      297842.69      298642.79     -569.56254      2739.6125      1311.2474      6653.1553      3916.8182      10569.974      155835.68      42.71158       42.71158       85.42316           16004 
    232000   3188.0495      295005.08      1418.5058      295724.44      294910.68      294380.12      815.20454     -1222.0419      986.40796      6594.6401      3845.7167      10440.357      156030.1       42.729335      42.729335      85.45867           16004 
    233000   3180.2252      297329.87      1424.8922      297719.42      297352.24      296917.96     -1058.999      -453.42296      644.65267      6578.4552      4020.0796      10598.535      155892.8       42.716797      42.716797      85.433594          16004 
    234000   3185.6709      299354.3       1431.2799      297488.51      300401.51      300172.87      979.68706      587.105        1495.7889      6589.7198      3983.1368      10572.857      155759.19      42.704591      42.704591      85.409181          16004 
    235000   3162.9166      299594.52      1437.6707      298477.72      299559.96      300745.87      1102.7479      930.59506     -79.869465      6542.6515      3929.6208      10472.272      155674.5       42.696849      42.696849      85.393698          16004 
    236000   3204.4243      301537.95      1444.0627      303393.7       301368.54      299851.61      2180.3973     -4377.7771      564.87902      6628.5122      4045.9616      10674.474      155718.49      42.70087       42.70087       85.401741          16004 
    237000   3180.4174      302404.58      1450.4533      303660.66      302477.87      301075.2      -2906.7313      1077.1414      666.52173      6578.8528      4006.5133      10585.366      155552.59      42.685701      42.685701      85.371402          16004 
    238000   3218.6255      301476.36      1456.8428      300361.53      301274.51      302793.04      160.79316     -2063.7201      235.98419      6657.8882      4046.4952      10704.383      155696.44      42.698855      42.698855      85.39771           16004 
    239000   3220.4616      295780.07      1463.236       295569.52      295202.91      296567.79     -1116.7801      22.364277      253.54043      6661.6862      3906.3455      10568.032      155996.8       42.726295      42.726295      85.452589          16004 
    240000   3208.9571      297918.94      1469.6288      299626.7       295296.97      298833.16      1178.0247     -147.30722     -727.72356      6637.8886      3879.2219      10517.11       155776.82      42.706201      42.706201      85.412403          16004 
    241000   3191.7939      300968.33      1476.0211      301246.32      301246.5       300412.19     -215.82358     -1533.9257     -2101.7347      6602.3857      4083.6927      10686.078      155683.94      42.697712      42.697712      85.395424          16004 
    242000   3214.8418      302476.9       1482.4165      302451.88      302936.11      302042.71     -1298.016       897.60358      2816.3948      6650.0612      3959.2335      10609.295      155549.22      42.685393      42.685393      85.370786          16004 
    243000   3218.0574      301337.27      1488.8108      303439.4       301173.06      299399.34     -2479.677       888.01949     -2235.2907      6656.7129      4014.8799      10671.593      155688.18      42.6981        42.6981        85.3962            16004 
    244000   3173.1957      301584.78      1495.2035      300639.02      303407.45      300707.88      25.822487      629.15734     -1610.4199      6563.9142      4004.2405      10568.155      155582.56      42.688442      42.688442      85.376885          16004 
    245000   3208.014       301455.8       1501.5945      301111.94      300264.29      302991.18      1130.8906     -1169.871      -1854.2279      6635.9376      4036.6328      10672.57       155630.94      42.692867      42.692867      85.385733          16004 
    246000   3240.5128      298050.48      1507.984       298322.72      297139.52      298689.2       844.31848      482.13722     -436.30246      6703.1631      3884.1268      10587.29       155833.21      42.711354      42.711354      85.422708          16004 
    247000   3214.6233      296454.21      1514.3758      296415.36      295857.06      297090.22      2535.043       2876.6222      504.42487      6649.6093      3942.987       10592.596      155952.3       42.722232      42.722232      85.444463          16004 
    248000   3188.6415      297677.21      1520.7663      298170.44      297678.01      297183.17      476.45178      1042.9858     -3134.326       6595.8647      3979.1474      10575.012      155794.56      42.707823      42.707823      85.415646          16004 
    249000   3210.4895      300985.54      1527.1557      301397.81      300650.76      300908.04      91.395231      561.19405      385.87626      6641.0583      4081.5322      10722.59       155749.07      42.703666      42.703666      85.407332          16004 
    250000   3199.4945      301496.23      1533.543       300785.43      302328.09      301375.18      388.7082       399.93045      2235.0318      6618.3148      3990.4999      10608.815      155600.9       42.690119      42.690119      85.380238          16004 
    251000   3249.9655      300018.9       1539.9297      298885.21      300076.01      301095.49     -904.50818     -4906.7839     -222.48534      6722.7165      4031.7597      10754.476      155800.27      42.708345      42.708345      85.416689          16004 
    252000   3225.5877      300562.11      1546.3177      301147.39      300006.86      300532.06      472.22848     -950.57614      180.14488      6672.2898      3926.2326      10598.522      155742.92      42.703104      42.703104      85.406207          16004 
    253000   3200.9588      302275.04      1552.7075      302067.28      304978.45      299779.39      843.99119      317.67593     -1257.037       6621.3436      3944.415       10565.759      155588.78      42.689011      42.689011      85.378022          16004 
    254000   3201.9417      304370.12      1559.0997      304625.59      303752.53      304732.25     -602.09871      1722.6207     -3407.1189      6623.3768      4072.6496      10696.026      155491.41      42.680104      42.680104      85.360209          16004 
    255000   3222.6227      301481.83      1565.4932      301852.41      301277.57      301315.52     -98.757642     -2470.9997      162.79174      6666.1566      3888.7669      10554.923      155563.19      42.68667       42.68667       85.373341          16004 
    256000   3190.5063      295814.35      1571.8881      295207.41      296035.37      296200.26     -428.9055       2214.088      -2756.9332      6599.7221      4015.5576      10615.28       155980.45      42.724801      42.724801      85.449603          16004 
    257000   3171.3944      298965.9       1578.2784      299913.25      297244.17      299740.3      -1391.0817     -480.37034      282.63475      6560.1882      3995.6974      10555.886      155734.42      42.702327      42.702327      85.404653          16004 
    258000   3222.2281      300144.7       1584.6655      300485.04      299894.24      300054.82      1492.4217     -507.93589      1038.084       6665.3403      4022.7078      10688.048      155720.78      42.70108       42.70108       85.402161          16004 
    259000   3201.6486      301119.27      1591.0507      301780.02      301596.26      299981.53     -3236.1381      385.99852     -3839.761       6622.7705      3954.8597      10577.63       155619.39      42.69181       42.69181       85.383621          16004 
    260000   3198.7539      300539.74      1597.4374      300072.36      301712.53      299834.35     -3333.1077      1256.5336     -1954.9125      6616.7827      3988.5817      10605.364      155678.49      42.697214      42.697214      85.394428          16004 
    261000   3191.0763      302039.75      1603.8277      302121.2       301588.59      302409.45     -1029.8596      1447.0955     -775.30021      6600.9011      3997.6953      10598.596      155599.11      42.689956      42.689956      85.379911          16004 
    262000   3180.3497      298595.47      1610.2137      298265.18      297482.05      300039.17      2700.995      -1695.3671      354.53309      6578.7127      3933.5894      10512.302      155823.91      42.710505      42.710505      85.421009          16004 
    263000   3165.6         295968.26      1616.5998      296279.73      295491.22      296133.82     -537.20869     -524.85031     -2549.0431      6548.2023      3925.7743      10473.977      155986         42.725309      42.725309      85.450618          16004 
    264000   3224.9357      297791.27      1622.9886      297542.93      297320.63      298510.25     -1109.8995      1142.8943     -899.04566      6670.9412      3914.639       10585.58       155836.76      42.711678      42.711678      85.423357          16004 
    265000   3228.425       299207.18      1629.3772      299121.08      298964.63      299535.82     -491.27433      853.75961     -449.81373      6678.1588      3960.2189      10638.378      155753.86      42.704104      42.704104      85.408207          16004 
    266000   3219.2804      302138.59      1635.7661      303570.82      302409.24      300435.71      85.538239      2351.1993      308.82339      6659.2428      3915.6135      10574.856      155576.51      42.687889      42.687889      85.375778          16004 
    267000   3199.7147      306466.77      1642.1562      307900.61      303965.76      307533.93      4.0172648      891.97821      54.263956      6618.7703      4013.3201      10632.09       155375.94      42.669536      42.669536      85.339072          16004 
    268000   3203.7495      300208.37      1648.5478      300767         299635.47      300222.64      1061.7977     -1046.5278     -2502.5458      6627.1163      4010.9677      10638.084      155716.15      42.700657      42.700657      85.401313          16004 
    269000   3169.1658      298805.09      1654.937       299726.56      299563.7       297125         1538.3748     -2210.7318     -1506.0394      6555.5782      4007.9131      10563.491      155859.5       42.713756      42.713756      85.427513          16004 
    270000   3188.527       298636.05      1661.3277      300116.42      297888.61      297903.12      904.05897     -1387.4948     -286.28557      6595.6279      3923.7172      10519.345      155803.28      42.70862       42.70862       85.417239          16004 
    271000   3227.532       298623.6       1667.7192      298885.98      299300.95      297683.88     -704.25187     -1261.6452      2302.5962      6676.3116      3964.8714      10641.183      155830.51      42.711108      42.711108      85.422216          16004 
    272000   3182.8247      301313.99      1674.1094      302354.34      302116.38      299471.25      426.35269      1301.2781      1093.1262      6583.8323      3974.7534      10558.586      155685.83      42.697885      42.697885      85.39577           16004 
    273000   3232.0365      297682.55      1680.4947      297802.24      298625.24      296620.16     -868.29365     -2115.0345      1201.0274      6685.6295      3944.1374      10629.767      155886.3       42.716204      42.716204      85.432409          16004 
    274000   3179.7644      295048.44      1686.8823      296201.19      293912.06      295032.06      884.69078      18.430897     -542.80602      6577.502       3866.638       10444.14       155979.85      42.724747      42.724747      85.449495          16004 
    275000   3196.268       299870.92      1693.2686      298863.94      300089.31      300659.52      3035.1397      199.25123     -230.3535       6611.6406      3937.4779      10549.119      155734.26      42.702312      42.702312      85.404624          16004 
    276000   3231.0302      303939.2       1699.6537      304746.45      302754.44      304316.72      2556.0977     -2510.3964      372.17276      6683.5479      4023.6602      10707.208      155598.02      42.689856      42.689856      85.379712          16004 
    277000   3227.7904      304405.57      1706.0387      301188.36      305798.61      306229.74     -174.61449      728.72116     -930.87906      6676.8461      3994.734       10671.58       155524.51      42.683132      42.683132      85.366265          16004 
    278000   3168.5783      298866.23      1712.4226      298268.22      299719.4       298611.07     -1406.1691     -1185.746       1258.4304      6554.3629      3908.6049      10462.968      155763.4       42.704975      42.704975      85.40995           16004 
    279000   3200.6336      298243.13      1718.8098      297394.66      297921.31      299413.42      1893.4565      1305.9974      596.99145      6620.6709      3984.5011      10605.172      155870.49      42.714759      42.714759      85.429519          16004 
    280000   3221.2805      299315.33      1725.1962      299365.33      298770.93      299809.73     -1580.233       4141.8853     -2821.9492      6663.3801      3991.4824      10654.863      155812.31      42.709444      42.709444      85.418889          16004 
    281000   3178.6616      300527.27      1731.5837      300940.61      299172.5       301468.71      189.99345      179.97652      508.27111      6575.2209      3956.7101      10531.931      155693         42.698541      42.698541      85.397081          16004 
    282000   3195.5239      296341.99      1737.9698      296985.89      296786.3       295253.78     -815.97953     -4201.3317      667.72982      6610.1012      3956.4244      10566.526      155919.05      42.719195      42.719195      85.43839           16004 
    283000   3175.3441      298116.94      1744.3537      298282.06      298182.07      297886.69      783.72431     -2198.8465      513.59745      6568.3583      3946.7399      10515.098      155793.27      42.707705      42.707705      85.41541           16004 
    284000   3195.5004      301490.03      1750.7397      302482.44      300887.75      301099.9      -1460.505       816.71002      1557.5653      6610.0526      4087.2512      10697.304      155687.27      42.698017      42.698017      85.396034          16004 
    285000   3208.7538      303283.36      1757.1239      302848.95      302751.86      304249.27     -107.2829       267.53002      342.86779      6637.4681      3967.1815      10604.65       155505.95      42.681434      42.681434      85.362869          16004 
    286000   3204.1345      300475.89      1763.5099      298934.66      302475.28      300017.73     -1527.2518     -90.127075      889.28972      6627.9128      3977.79        10605.703      155701.35      42.699304      42.699304      85.398608          16004 
[...]
   3930000   3645.9624      304631.12      6887.7552      307516.8       305481.62      300894.95     -548.79116     -1615.1414     -1291.8014      7541.856       5269.2684      12811.124      156423.81      42.725218      42.725218      85.690819          16004 
   3931000   3634.1809      302765.72      6895.183       304399.46      305177.19      298720.5      -1182.026       2712.277       1060.1074      7517.4854      5261.4191      12778.904      156588.49      42.740206      42.740206      85.720879          16004 
   3932000   3644.4992      298742.88      6902.6094      299752.82      301154.73      295321.09     -645.35956     -555.17484     -2200.6448      7538.8291      5204.1267      12742.956      156778.5       42.757487      42.757487      85.755538          16004 
   3933000   3626.0722      298540.99      6910.0389      301330.17      300403.93      293888.87     -1400.3382     -1070.5403     -1230.4013      7500.712       5237.7087      12738.421      156801.92      42.759616      42.759616      85.759808          16004 
   3934000   3618.5304      300467.72      6917.4614      302383.37      301227.88      297791.9       46.268127     -4552.3834      811.44147      7485.1115      5262.3243      12747.436      156752.04      42.755081      42.755081      85.750713          16004 
   3935000   3592.9241      300046.34      6924.8871      302646.53      300614.82      296877.67     -645.84618     -1113.8475      4683.9533      7432.1434      5324.3421      12756.486      156702.5       42.750576      42.750576      85.741679          16004 
   3936000   3631.5978      305263.54      6932.3188      307713.84      305769.71      302307.05     -481.44908     -893.83267      2182.294       7512.1421      5300.4331      12812.575      156400.22      42.72307       42.72307       85.68651           16004 
   3937000   3628.9048      303450.62      6939.7465      303895.37      307159.83      299296.66     -1200.1182     -993.71687     -1157.3156      7506.5714      5285.5736      12792.145      156507.67      42.732851      42.732851      85.706128          16004 
   3938000   3611.5953      299702.09      6947.1725      298196.37      303267.65      297642.27      3143.8933     -659.85824     -2255.618       7470.7659      5282.5497      12753.316      156710.84      42.751334      42.751334      85.743199          16004 
   3939000   3579.8578      300131.86      6954.602       301901.91      302038.9       296454.76     -1816.7454     -523.78564      593.62275      7405.1153      5346.3174      12751.433      156721.36      42.752291      42.752291      85.745118          16004 
   3940000   3615.5355      301686.76      6962.0298      302798.62      303334.38      298927.28     -512.69534      126.48603     -1181.5687      7478.9164      5270.26        12749.176      156731.49      42.753212      42.753212      85.746965          16004 
   3941000   3631.1646      299559.97      6969.4559      302468.49      302700.02      293511.4      -1847.934      -1681.7168      779.73456      7511.2459      5244.6655      12755.911      156695.41      42.749932      42.749932      85.740385          16004 
   3942000   3613.9701      299985.93      6976.8731      302037.09      302801.45      295119.27     -1668.3829     -85.26449      -1171.8458      7475.6783      5280.7026      12756.381      156692.36      42.749654      42.749654      85.739829          16004 
   3943000   3617.2442      299038.01      6984.2964      300772.24      300998.22      295343.58     -2177.5913     -1689.0359     -1139.8138      7482.4509      5260.1113      12742.562      156764.62      42.756224      42.756224      85.753006          16004 
   3944000   3615.7495      300745.65      6991.712       303902.9       303269.26      295064.79      1188.5413      574.91388     -280.45243      7479.3589      5273.5381      12752.897      156708.87      42.751155      42.751155      85.74284           16004 
   3945000   3624.4045      302806.22      6999.1393      304337.8       304169.19      299911.68     -2616.5199     -1281.0054      1061.6413      7497.2622      5298.3124      12795.575      156479.98      42.730331      42.730331      85.701073          16004 
   3946000   3621.1569      302977.56      7006.5649      304001.22      304180.18      300751.26      1046.3462      1002.1794      643.88066      7490.5445      5307.7585      12798.303      156465.33      42.728997      42.728997      85.698399          16004 
   3947000   3636.648       301635.51      7013.9943      302436.51      303474.1       298995.91     -171.58287      1655.1845      1382.72        7522.5886      5255.477       12778.066      156572.11      42.738716      42.738716      85.717891          16004 
   3948000   3640.3068      299440.24      7021.4227      301149.32      303262.23      293909.17     -4292.8452      4341.7438      1279.691       7530.1569      5209.5017      12739.659      156775.02      42.75717       42.75717       85.754902          16004 
   3949000   3625.1331      299220.16      7028.8549      300540.42      302266.33      294853.73      1026.6148      1018.7499     -1334.3218      7498.7694      5245.09        12743.859      156750.26      42.754919      42.754919      85.750389          16004 
   3950000   3646.6175      298944.49      7036.2865      301446.9       300422.93      294963.63      424.62025     -494.85667      434.95141      7543.211       5204.0231      12747.234      156726.56      42.752764      42.752764      85.746067          16004 
   3951000   3609.7999      299752.27      7043.7199      302002.16      301687.45      295567.2      -866.41781      906.67072      122.36429      7467.0519      5277.967       12745.019      156737.11      42.753723      42.753723      85.747989          16004 
   3952000   3612.2652      304300.23      7051.1505      307061         306038.22      299801.45      167.56999      2355.3245     -349.40218      7472.1516      5325.9019      12798.053      156454.27      42.727991      42.727991      85.69638           16004 
   3953000   3631.0917      305226.55      7058.587       305913.74      307920.53      301845.39     -1462.5664     -1771.5432      66.515056      7511.0951      5303.3598      12814.455      156365.56      42.719914      42.719914      85.68018           16004 
   3954000   3609.289       300736.84      7066.0265      302604.36      303529.25      296076.9       350.97271      1878.3294      1143.7201      7465.995       5298.0153      12764.01       156631.62      42.74413       42.74413       85.728749          16004 
   3955000   3621.7561      299837.05      7073.4699      300500.95      301773.82      297236.38     -1618.9542      1563.6315      2417.3176      7491.784       5236.5833      12728.367      156820.8       42.761331      42.761331      85.763249          16004 
   3956000   3616.7299      298312.56      7080.9087      299713.08      299604.96      295619.64      2328.534      -1398.0857     -2263.9872      7481.387       5243.7026      12725.09       156838.19      42.762912      42.762912      85.766418          16004 
   3957000   3599.5861      294262.48      7088.3488      296324.47      295694.34      290768.64      1065.9116     -1586.9383      968.60165      7445.9243      5250.3079      12696.232      156993.56      42.777028      42.777028      85.79473           16004 
   3958000   3632.5248      300752.62      7095.7907      302629.19      301233.79      298394.89     -1408.5776     -3122.964       2159.9463      7514.0596      5247.3604      12761.42       156643.16      42.745179      42.745179      85.730854          16004 
   3959000   3609.6076      302117.59      7103.23        303852.75      302936.63      299563.38      4087.5351      153.12439     -817.01405      7466.6541      5304.3872      12771.041      156592.14      42.740538      42.740538      85.721545          16004 
   3960000   3597.0481      301247.67      7110.6724      303698.93      303454.51      296589.58      351.38445      3553.9473     -790.26837      7440.6743      5309.6334      12750.308      156701.94      42.750526      42.750526      85.741577          16004 
   3961000   3604.5511      296464.18      7118.1136      298953.04      298669.93      291769.56      3115.81       -779.29174      3093.0562      7456.1946      5265.8775      12722.072      156852.69      42.764229      42.764229      85.769062          16004 
   3962000   3600.5756      297283.75      7125.5543      298639.49      298724.96      294486.79     -2135.5787     -1174.1037     -1356.2047      7447.971       5271.931       12719.902      156864.78      42.765329      42.765329      85.771267          16004 
   3963000   3616.4509      299961.06      7132.9961      302795.08      300024.26      297063.84     -1062.9731     -361.88561      780.87279      7480.8098      5264.2962      12745.106      156725.29      42.752649      42.752649      85.745835          16004 
   3964000   3622.7465      303830.56      7140.436       305401.51      305286.56      300803.62     -852.25843      611.73801     -1044.4763      7493.8326      5309.3042      12803.137      156415.85      42.724493      42.724493      85.689365          16004 
   3965000   3635.0601      302847.16      7147.8779      304685.26      304620.34      299235.88     -176.90976      661.63229      1607.4885      7519.304       5268.0716      12787.376      156494.26      42.731631      42.731631      85.70368           16004 
   3966000   3655.0642      299132.85      7155.3193      301503.63      301041.54      294853.38      592.6902       1941.7897      1183.5979      7560.6833      5195.766       12756.449      156655.7       42.74632       42.74632       85.733142          16004 
   3967000   3593.4686      299330.17      7162.7585      302095.24      300063.47      295831.79      397.05112     -1120.9135      1160.8539      7433.2699      5312.7317      12746.002      156708.59      42.75113       42.75113       85.742789          16004 
   3968000   3613.9639      301541.29      7170.1924      301436.28      303974.49      299213.11      453.87196      1122.8933      461.64591      7475.6653      5273.6866      12749.352      156689.58      42.749401      42.749401      85.739321          16004 
   3969000   3619.3351      300650.6       7177.6088      301725.56      303803.48      296422.77     -2123.3589     -816.55954     -806.69892      7486.7759      5274.2316      12761.007      156626.44      42.743658      42.743658      85.727803          16004 
   3970000   3645.5981      300598.47      7185.0018      301973.78      302408.5       297413.11      1056.0057     -2057.2064     -2252.3676      7541.1023      5210.2553      12751.358      156675.42      42.748113      42.748113      85.736738          16004 
   3971000   3604.5688      301334.17      7192.3971      303761.86      303017.21      297223.45      696.73551     -2342.9095     -2968.07        7456.2311      5292.6087      12748.84       156681.09      42.748629      42.748629      85.737773          16004 
   3972000   3611.1323      301316.07      7199.7953      301283.58      303756.2       298908.42      276.1858       1541.1975     -423.24078      7469.8081      5286.3124      12756.12       156639.02      42.744803      42.744803      85.730099          16004 
   3973000   3595.8938      298933.83      7207.1919      300426.62      300244.8       296130.08      1071.8526      1585.332      -3153.6761      7438.2865      5290.1415      12728.428      156787.09      42.758267      42.758267      85.757104          16004 
   3974000   3600.2178      297132.27      7214.5887      297703.68      297609.49      296083.65     -1683.0281     -1216.1064     -2014.997       7447.2308      5254.7034      12701.934      156927.52      42.771029      42.771029      85.782699          16004 
   3975000   3623.1024      298546.92      7221.9866      298705.06      299329.69      297606.02      781.24753      210.99018      3902.9323      7494.5688      5238.3807      12732.949      156760.66      42.755864      42.755864      85.752284          16004 
   3976000   3628.2528      302819.51      7229.3803      305615.55      303803.12      299039.87      1875.1667     -1245.284      -658.44188      7505.2227      5273.4902      12778.713      156515.65      42.733577      42.733577      85.707585          16004 
   3977000   3597.3844      305587.37      7236.7762      307028.3       306966.42      302767.38     -486.50246     -1026.8035     -2230.7776      7441.3698      5380.2602      12821.63       156288.96      42.712937      42.712937      85.666188          16004 
   3978000   3615.4853      302934.94      7244.1762      305849.41      302726.82      300228.58      2523.5804     -1433.1105      807.49676      7478.8126      5306.8032      12785.616      156472.71      42.729669      42.729669      85.699747          16004 
   3979000   3659.3433      300066.9       7251.5737      301783.03      300703.12      297714.56      215.722       -85.310358     -2848.7134      7569.535       5165.4282      12734.963      156739.82      42.75397       42.75397       85.748485          16004 
   3980000   3617.8656      296478.58      7258.9757      296475.52      298504.04      294456.19     -1041.8466     -592.47328      865.06617      7483.7363      5226.7212      12710.458      156869.48      42.765756      42.765756      85.772123          16004 
   3981000   3621.3516      298505.87      7266.378       297747.87      301982.04      295787.69      2530.1888     -606.82821     -2633.8043      7490.9473      5225.5788      12716.526      156836.49      42.762758      42.762758      85.76611           16004 
   3982000   3618.8929      301184.27      7273.7785      303029.72      304123.6       296399.48      905.99296     -23.801831      1978.0263      7485.8613      5277.5409      12763.402      156582.42      42.739654      42.739654      85.719772          16004 
   3983000   3620.9658      305775.82      7281.1798      306804.43      307225.18      303297.84      4378.055      -1152.6892     -1060.1114      7490.1492      5304.7887      12794.938      156414.86      42.724403      42.724403      85.689184          16004 
   3984000   3578.6664      302213.63      7288.5789      301652.67      304130.62      300857.6       542.64004      778.40942     -70.741828      7402.6508      5367.1792      12769.83       156546.18      42.736356      42.736356      85.713159          16004 
   3985000   3607.388       298412.72      7295.9747      300344.74      301393.76      293499.64     -698.58752     -716.76509     -2317.9853      7462.0629      5263.6748      12725.738      156778.9       42.757523      42.757523      85.755611          16004 
   3986000   3650.3309      299052.64      7303.3746      302234.52      298785.35      296138.04      470.0954       1437.5697     -1373.6455      7550.8923      5169.3033      12720.196      156806.42      42.760025      42.760025      85.760628          16004 
   3987000   3611.8286      300877.57      7310.774       302614.64      303006.6       297011.48     -1885.1745      1708.5441     -1307.2452      7471.2485      5255.9821      12727.231      156766.45      42.756391      42.756391      85.753341          16004 
   3988000   3646.6167      298505.28      7318.1706      299932.4       300897.19      294686.26      2018.0449      2305.6444     -2818.974       7543.2094      5185.9218      12729.131      156755.72      42.755415      42.755415      85.751383          16004 
   3989000   3603.8827      297154.72      7325.5719      298075.67      299523.82      293864.65      654.96902     -336.40441      2046.9126      7454.812       5262.9279      12717.74       156816.22      42.760915      42.760915      85.762415          16004 
   3990000   3612.506       296962.43      7332.9686      298391.39      297747.22      294748.68     -1064.8064     -1038.6472     -1017.2976      7472.6497      5236.6113      12709.261      156860.24      42.764916      42.764916      85.770439          16004 
   3991000   3636.3803      300581.09      7340.3643      303135.2       302372.15      296235.93      489.43849     -1654.7164     -2571.4679      7522.0349      5244.842       12766.877      156550.16      42.736718      42.736718      85.713884          16004 
   3992000   3640.5646      304109.05      7347.7611      304516.49      306524.06      301286.61      135.37104     -2883.0471      1797.4285      7530.6903      5256.0734      12786.764      156443.94      42.727051      42.727051      85.694495          16004 
   3993000   3628.806       303485.27      7355.1571      305887.37      305053.32      299515.13      111.4789      -615.09247      214.33668      7506.367       5277.8166      12784.184      156457.51      42.728286      42.728286      85.696973          16004 
   3994000   3630.7011      303348.82      7362.5527      304646.78      305699.56      299700.11     -2220.1119      3043.1086      1012.7859      7510.2872      5265.3389      12775.626      156503.08      42.732433      42.732433      85.705291          16004 
   3995000   3614.2273      297826.95      7369.9489      299872.31      300427.13      293181.42     -761.32561      868.0769       1035.992       7476.2101      5242.8066      12719.017      156802.36      42.759656      42.759656      85.759888          16004 
   3996000   3602.7995      296729.68      7377.3416      298058.65      298699.45      293430.94      2065.2175      491.55036      261.37117      7452.5712      5261.8249      12714.396      156824.61      42.761678      42.761678      85.763944          16004 
   3997000   3638.2826      298367.27      7384.7352      300508.97      300311.54      294281.31     -3041.7338     -2909.0362     -1933.3453      7525.9698      5203.8663      12729.836      156740.83      42.754062      42.754062      85.748669          16004 
   3998000   3625.7055      299746.93      7392.1308      299895.59      301821.64      297523.57      1200.6343     -3933.7292      932.82275      7499.9535      5228.9646      12728.918      156743.78      42.754329      42.754329      85.749206          16004 
   3999000   3597.2423      301792.76      7399.5253      303272.69      303743.59      298362.02      1550.1842     -2116.9856      4169.3607      7441.076       5320.9262      12762.002      156568.04      42.738345      42.738345      85.717147          16004 
   4000000   3618.3947      302797.86      7406.9288      305188.5       304386.74      298818.35      3204.8832     -326.27337     -1428.325       7484.8308      5279.8374      12764.668      156551.21      42.736814      42.736814      85.714077          16004 
Loop time of 7406.93 on 8 procs for 1000000 steps with 16004 atoms

Performance: 5.832 ns/day, 4.115 hours/ns, 135.009 timesteps/s
61.1% CPU use with 1 MPI tasks x 8 OpenMP threads

MPI task timing breakdown:
Section |  min time  |  avg time  |  max time  |%varavg| %total
---------------------------------------------------------------
Pair    | 7133.6     | 7133.6     | 7133.6     |   0.0 | 96.31
Neigh   | 9.3284     | 9.3284     | 9.3284     |   0.0 |  0.13
Comm    | 36.478     | 36.478     | 36.478     |   0.0 |  0.49
Output  | 1.2762     | 1.2762     | 1.2762     |   0.0 |  0.02
Modify  | 200.86     | 200.86     | 200.86     |   0.0 |  2.71
Other   |            | 25.35      |            |       |  0.34

Nlocal:          16004 ave       16004 max       16004 min
Histogram: 1 0 0 0 0 0 0 0 0 0
Nghost:          13646 ave       13646 max       13646 min
Histogram: 1 0 0 0 0 0 0 0 0 0
Neighs:              0 ave           0 max           0 min
Histogram: 1 0 0 0 0 0 0 0 0 0
FullNghs:  1.47473e+06 ave 1.47473e+06 max 1.47473e+06 min
Histogram: 1 0 0 0 0 0 0 0 0 0

Total # of neighbors = 1474726
Ave neighs/atom = 92.147338
Neighbor list builds = 30023
Dangerous builds = 0
Total wall time: 7:25:47
