
atom_style atomic
units metal
boundary p p p
#atom_modify sort 0 0.0
newton on

read_data data.lammps
Reading data file ...
  orthogonal box = (0 0 0) to (43.790145 43.790145 87.58029)
  1 by 1 by 1 MPI processor grid
  reading atoms ...
  16004 atoms
  read_data CPU = 0.132 seconds
# replicate 10 10 20

### interactions

pair_style flare
pair_coeff * * lmp.flare
Reading potential file lmp.flare with DATE: Thu

# compute unc all flare/std/atom L_inv_lmp.flare sparse_desc_lmp.flare
# compute MaxUnc all reduce max c_unc

mass 1 12.011000
mass 2 28.085000

thermo_style custom step temp press cpu pxx pyy pzz pxy pxz pyz ke pe etotal vol lx ly lz atoms    #c_MaxUnc
thermo 1000
timestep 0.0005
restart 100000 restart_*.dat

#################### Equilibrate at P and T_es ##############################
velocity all create $T 41928459 rot yes dist gaussian
velocity all create 2800 41928459 rot yes dist gaussian
fix mom all momentum 1000 linear 1 1 1 angular

fix 1 all npt temp $T $T $(100.0*dt) iso $P $P $(1000.0*dt)
fix 1 all npt temp 2800 $T $(100.0*dt) iso $P $P $(1000.0*dt)
fix 1 all npt temp 2800 2800 $(100.0*dt) iso $P $P $(1000.0*dt)
fix 1 all npt temp 2800 2800 0.050000000000000002776 iso $P $P $(1000.0*dt)
fix 1 all npt temp 2800 2800 0.050000000000000002776 iso 900000 $P $(1000.0*dt)
fix 1 all npt temp 2800 2800 0.050000000000000002776 iso 900000 900000 $(1000.0*dt)
fix 1 all npt temp 2800 2800 0.050000000000000002776 iso 900000 900000 0.5
dump 1 all custom 1000 1equil.bin id type x y z vx vy vz
run   10000 # report performance
Neighbor list info ...
  update every 1 steps, delay 10 steps, check yes
  max neighbors/atom: 2000, page size: 100000
  master list distance cutoff = 6
  ghost atom cutoff = 6
  binsize = 6, bins = 8 8 15
  1 neighbor lists, perpetual/occasional/extra = 1 0 0
  (1) pair flare/kk, perpetual
      attributes: full, newton on, kokkos_device
      pair build: full/bin/kk/device
      stencil: full/bin/3d
      bin: kk/device
Per MPI rank memory allocation (min/avg/max) = 15.9 | 15.9 | 15.9 Mbytes
   Step          Temp          Press           CPU            Pxx            Pyy            Pzz            Pxy            Pxz            Pyz           KinEng         PotEng         TotEng         Volume           Lx             Ly             Lz          Atoms   
         0   2800           57033.054      0              56698.886      57032.726      57367.549     -735.25824     -16.376755     -430.27097      5791.9403     -4000.2205      1791.7198      167941.93      43.790145      43.790145      87.58029           16004 
      1000   2832.3707      897603.48      7.2426152      898964.36      896130.13      897715.96     -82.107308     -5.2382796      4158.5759      5858.9007      9871.2176      15730.118      132262.81      40.439203      40.439203      80.878406          16004 
      2000   2746.6223      899109.88      14.528669      897416.92      899454.41      900458.3      -4720.5365      776.44436      2770.8162      5681.5259      9664.0466      15345.572      132043.05      40.416793      40.416793      80.833586          16004 
      3000   2838.8603      899641.63      21.798331      898054.93      897672.81      903197.15     -5348.8075     -2887.9827      3558.1596      5872.3248      9775.8015      15648.126      132048.04      40.417302      40.417302      80.834604          16004 
      4000   2776.8058      901023.71      29.065942      900521.31      899989.27      902560.57     -1836.5656      2873.3254     -76.591263      5743.962       9723.857       15467.819      131960.82      40.408401      40.408401      80.816802          16004 
      5000   2825.4992      900208.9       36.355585      900658.34      899318.12      900650.24      874.98764      2064.2676     -103.95732      5844.6866      9818.7234      15663.41       131991.66      40.411549      40.411549      80.823098          16004 
      6000   2753.7372      898264.07      43.628452      897994.08      896864.17      899933.97      1270.44       -1853.8859     -363.3501       5696.2434      9776.3161      15472.56       131977.26      40.41008       40.41008       80.82016           16004 
      7000   2800.462       902080.59      50.901337      902173.63      902364.64      901703.5      -150.43682     -3370.8896     -140.21137      5792.8959      9858.7937      15651.69       131954.57      40.407763      40.407763      80.815527          16004 
      8000   2789.6021      899108.86      58.174486      900812.07      896718.6       899795.92      2063.1689     -1058.2258     -1531.201       5770.4317      9763.7177      15534.149      131961.03      40.408423      40.408423      80.816846          16004 
      9000   2828.0942      901479.84      65.429693      902658.13      901333.2       900448.2      -732.33461      1688.5849      2091.6924      5850.0545      9827.761       15677.816      131914.19      40.403641      40.403641      80.807283          16004 
     10000   2783.1622      899343.92      72.707152      899053.15      897784.44      901194.17      1927.643      -1482.8072      2664.2917      5757.1104      9747.3451      15504.455      131955.46      40.407854      40.407854      80.815708          16004 
Loop time of 72.7072 on 8 procs for 10000 steps with 16004 atoms

Performance: 5.942 ns/day, 4.039 hours/ns, 137.538 timesteps/s
65.5% CPU use with 1 MPI tasks x 8 OpenMP threads

MPI task timing breakdown:
Section |  min time  |  avg time  |  max time  |%varavg| %total
---------------------------------------------------------------
Pair    | 67.265     | 67.265     | 67.265     |   0.0 | 92.51
Neigh   | 0.095412   | 0.095412   | 0.095412   |   0.0 |  0.13
Comm    | 0.9745     | 0.9745     | 0.9745     |   0.0 |  1.34
Output  | 0.039193   | 0.039193   | 0.039193   |   0.0 |  0.05
Modify  | 3.8171     | 3.8171     | 3.8171     |   0.0 |  5.25
Other   |            | 0.5161     |            |       |  0.71

Nlocal:          16004 ave       16004 max       16004 min
Histogram: 1 0 0 0 0 0 0 0 0 0
Nghost:          14599 ave       14599 max       14599 min
Histogram: 1 0 0 0 0 0 0 0 0 0
Neighs:              0 ave           0 max           0 min
Histogram: 1 0 0 0 0 0 0 0 0 0
FullNghs:  1.76966e+06 ave 1.76966e+06 max 1.76966e+06 min
Histogram: 1 0 0 0 0 0 0 0 0 0

Total # of neighbors = 1769660
Ave neighs/atom = 110.57611
Neighbor list builds = 155
Dangerous builds = 0
run  990000
Per MPI rank memory allocation (min/avg/max) = 16.45 | 16.45 | 16.45 Mbytes
   Step          Temp          Press           CPU            Pxx            Pyy            Pzz            Pxy            Pxz            Pyz           KinEng         PotEng         TotEng         Volume           Lx             Ly             Lz          Atoms   
     10000   2783.1622      899343.92      0              899053.15      897784.44      901194.17      1927.643      -1482.8072      2664.2917      5757.1104      9747.3451      15504.455      131955.46      40.407854      40.407854      80.815708          16004 
     11000   2804.4056      897157.59      7.2539827      897319.36      896956.4       897197.01      5975.3132      3497.2701     -589.88983      5801.0535      9777.0938      15578.147      132060.13      40.418536      40.418536      80.837071          16004 
     12000   2802.9241      893329.96      14.514707      892273.68      894477.06      893239.14      3052.7737     -565.83684      724.66602      5797.989       9632.1477      15430.137      132124.01      40.425052      40.425052      80.850104          16004 
     13000   2797.5634      898703.23      21.802156      896445.88      900557.29      899106.53     -2887.3972     -4299.2972      1067.1805      5786.9001      9834.0097      15620.91       131997.46      40.412141      40.412141      80.824283          16004 
     14000   2803.542       902980.08      29.078242      903742.5       904350.31      900847.43     -161.90856     -3789.9839     -1312.0159      5799.2671      9818.9012      15618.168      131895.24      40.401706      40.401706      80.803412          16004 
     15000   2810.2673      900660.72      36.356876      900783.78      901502.3       899696.08      34.951143      2106.4962     -994.18387      5813.1787      9780.5098      15593.688      131905.15      40.402718      40.402718      80.805436          16004 
     16000   2791.1283      901928.43      43.635238      902061.22      903038.34      900685.73     -2194.2968     -1474.0794      2739.0136      5773.5888      9764.6839      15538.273      131873.18      40.399454      40.399454      80.798907          16004 
     17000   2797.9519      899423.98      50.901105      899073.32      897350.95      901847.67     -1973.9657      1669.7158     -2753.4984      5787.7037      9846.7255      15634.429      131969.36      40.409274      40.409274      80.818547          16004 
     18000   2760.1826      893474.14      58.191747      894829.33      893180.67      892412.43     -88.934141     -4618.5978     -649.91549      5709.576       9708.1022      15417.678      132090.68      40.421652      40.421652      80.843305          16004 
     19000   2803.8131      888772.29      65.470615      887879.37      889179.84      889257.67     -3508.7903     -513.31581     -266.5486       5799.828       9653.5563      15453.384      132226.85      40.435538      40.435538      80.871075          16004 
     20000   2816.9969      899984.77      72.742163      899892.42      900798.29      899263.61     -5651.7086      2512.1649     -149.16674      5827.0992      9743.4252      15570.524      131955.72      40.407881      40.407881      80.815762          16004 
     21000   2830.1819      900256.02      80.002809      900447.44      899839.12      900481.51     -1841.1298      1402.8966      3820.5969      5854.373       9800.6319      15655.005      131925.04      40.404749      40.404749      80.809497          16004 
     22000   2795.7849      900307.49      87.261496      899593.48      900600.32      900728.68      1263.8642      3180.2175     -4783.0706      5783.2212      9832.9015      15616.123      131924.03      40.404646      40.404646      80.809291          16004 
     23000   2798.5472      899363.1       94.518079      899917.07      898678.51      899493.72     -560.55406      548.40233     -479.76028      5788.935       9848.3639      15637.299      131948.19      40.407112      40.407112      80.814225          16004 
     24000   2774.9448      904975.45      101.78856      904568.97      904585.21      905772.18     -1055.2413     -730.48269     -1281.1196      5740.1124      9936.6252      15676.738      131831.49      40.395196      40.395196      80.790392          16004 
     25000   2803.7609      908467.45      109.07306      906702.83      911289.21      907410.32      700.60757     -1845.2197      886.96605      5799.72        9894.1471      15693.867      131697.2       40.381475      40.381475      80.76295           16004 
     26000   2786.9719      904339.81      116.34328      903287.53      904519.61      905212.3      -2317.1087     -356.20857     -1033.5776      5764.9909      9904.0255      15669.016      131808.42      40.392839      40.392839      80.785678          16004 
     27000   2755.2855      898646.84      123.61443      896248.78      899174.71      900517.02     -1518.4498     -307.13841      3243.7255      5699.4461      9809.3303      15508.776      131903.74      40.402574      40.402574      80.805148          16004 
     28000   2794.3007      897872.36      130.87762      897440.66      897744.81      898431.61      3879.3687      567.06736      5141.469       5780.1511      9810.0754      15590.226      131983.14      40.410679      40.410679      80.821359          16004 
     29000   2778.1842      895600.03      138.13984      894475.16      895330.14      896994.79      321.66356     -456.76148      3099.4132      5746.8132      9700.7069      15447.52       132036.99      40.416175      40.416175      80.83235           16004 
     30000   2787.5358      897355.65      145.40914      895117.52      898988.56      897960.88      1805.1274     -1072.3961      1820.2337      5766.1574      9809.5924      15575.75       131994.84      40.411873      40.411873      80.823746          16004 
     31000   2760.5413      903846.86      152.67664      902058.95      905018.4       904463.24      1066.5683      176.38901     -901.82583      5710.318       9863.94        15574.258      131825.45      40.394579      40.394579      80.789158          16004 
     32000   2805.2497      906179.46      159.94145      905219.24      904985.76      908333.38     -3615.3601     -556.25027     -3078.7543      5802.7996      9852.8213      15655.621      131826.43      40.394679      40.394679      80.789358          16004 
     33000   2784.3257      902240.59      167.19508      899722.1       903536.5       903463.18     -1887.9381     -1662.4036      1969.9513      5759.5172      9837.4875      15597.005      131901.86      40.402382      40.402382      80.804765          16004 
     34000   2782.4763      895973.04      174.44562      896131.16      896064.52      895723.44     -1206.6534      1406.3898     -1876.9184      5755.6917      9700.7269      15456.419      132023.51      40.414799      40.414799      80.829599          16004 
     35000   2783.1126      892716.39      181.70567      892255.47      894129.7       891764        -964.80192     -114.92712     -2422.7896      5757.0078      9752.8905      15509.898      132104.4       40.423052      40.423052      80.846104          16004 
     36000   2787.4222      898699.91      188.96317      897247.83      898673.19      900178.69     -1367.4089      356.56091      1620.5583      5765.9224      9726.5406      15492.463      131962.46      40.408569      40.408569      80.817137          16004 
     37000   2788.1618      904243.24      196.22566      904811.38      905554.48      902363.86      1339.2361      4053.8842     -114.92103      5767.4525      9857.4814      15624.934      131829.19      40.394962      40.394962      80.789924          16004 
     38000   2841.2455      905382.56      203.49421      904652.87      905208.44      906286.37     -5913.1384      3298.3649      1762.0047      5877.2586      9855.4571      15732.716      131844.7       40.396545      40.396545      80.79309           16004 
     39000   2808.6846      902563.12      210.75685      903514.49      901993.62      902181.26      3923.5402      1756.0406     -2040.9329      5809.9049      9792.237       15602.142      131891.75      40.40135       40.40135       80.8027            16004 
     40000   2817.6487      899896.17      218.01689      899815.61      900780.8       899092.11     -2133.2824     -3771.4646      3489.9876      5828.4474      9892.6574      15721.105      131983.77      40.410744      40.410744      80.821488          16004 
     41000   2798.2782      893860.77      225.28392      895251.36      892697.13      893633.83      1154.4453      3321.9235      1716.9999      5788.3787      9707.3946      15495.773      132097.05      40.422302      40.422302      80.844605          16004 
     42000   2804.2306      893718.89      232.55287      893916.65      892534.07      894705.94      3638.845      -2004.735       2603.7637      5800.6914      9758.3652      15559.057      132126.4       40.425296      40.425296      80.850591          16004 
     43000   2771.4239      898637.2       239.82065      899982.98      897474.49      898454.14      753.3819      -1509.8137      43.309758      5732.8292      9767.3336      15500.163      131985.19      40.410889      40.410889      80.821778          16004 
     44000   2818.2116      901386.5       247.08954      899729.11      902794.93      901635.45      2433.648       5144.334      -3133.5981      5829.6118      9788.4731      15618.085      131905.75      40.40278       40.40278       80.805559          16004 
     45000   2812.2546      902357.12      254.3622       901456.25      903033.49      902581.61     -836.5995      -1992.605      -2527.6118      5817.2895      9763.7288      15581.018      131905.36      40.40274       40.40274       80.80548           16004 
     46000   2814.817       904458.12      261.6558       904074.54      904907.59      904392.21     -564.32543     -2574.2702     -397.08172      5822.5901      9878.9546      15701.545      131836.91      40.39575       40.39575       80.791499          16004 
     47000   2795.8979      901663.57      268.95206      900393.58      902934.83      901662.29      3982.4319      416.32262      934.35649      5783.455       9805.4676      15588.923      131904.17      40.402618      40.402618      80.805236          16004 
     48000   2810.412       892911.47      276.23522      893842.49      892105.27      892786.64      1177.4489      160.71869     -1961.4331      5813.478       9740.9008      15554.379      132150.59      40.427762      40.427762      80.855524          16004 
     49000   2774.2635      893873.7       283.52835      893285.97      894294.25      894040.87      887.77614      333.96373     -448.2268       5738.7031      9698.922       15437.625      132110.57      40.423681      40.423681      80.847361          16004 
     50000   2799.2471      899168.76      290.8102       901226.32      898357.22      897922.75      1621.3202      893.10059     -2582.2518      5790.3829      9780.9968      15571.38       131982.49      40.410614      40.410614      80.821227          16004 
     51000   2778.3145      901996.87      298.08445      903043.26      902916.76      900030.6       3285.0859      1639.6691     -2470.4071      5747.0827      9809.0158      15556.098      131880.9       40.400243      40.400243      80.800485          16004 
     52000   2801.3511      902010.95      305.37983      904046.92      902292.17      899693.77      332.78152      3012.6619     -1985.2388      5794.7351      9865.7415      15660.477      131892.27      40.401403      40.401403      80.802806          16004 
     53000   2794.2295      902236.64      312.66039      901974.78      904133.89      900601.25      2229.526      -3523.7037     -1039.5522      5780.0037      9797.7262      15577.73       131880.81      40.400233      40.400233      80.800465          16004 
     54000   2794.0307      895617.94      319.94467      894738.04      896124.63      895991.16     -2591.4068     -658.98776     -2025.7097      5779.5924      9722.6688      15502.261      132069.93      40.419535      40.419535      80.83907           16004 
     55000   2789.083       895499.96      327.23872      897122.92      894532.56      894844.4      -1129.4505     -1674.4517      1839.3333      5769.358       9674.833       15444.191      132061.36      40.418661      40.418661      80.837322          16004 
     56000   2799.7287      900257.74      334.50786      902708.39      897667.82      900397        -826.26116     -137.65237      3667.596       5791.379       9801.6077      15592.987      131927.18      40.404967      40.404967      80.809935          16004 
     57000   2790.9175      903173.92      341.80891      903751.71      903095.88      902674.17      649.80429     -1528.6594     -1970.4879      5773.1527      9847.5607      15620.713      131838.8       40.395943      40.395943      80.791886          16004 
     58000   2808.1157      905464.78      349.08886      904731.81      905674.89      905987.65     -3169.5143     -3064.8725      2150.8528      5808.728       9893.817       15702.545      131812.85      40.393292      40.393292      80.786584          16004 
     59000   2816.9592      898575.16      356.36117      897432.04      898893.6       899399.84     -201.4467      -6349.4384      1235.7167      5827.0212      9798.8928      15625.914      131986.54      40.411027      40.411027      80.822053          16004 
     60000   2787.5532      897026.95      363.64766      896882.27      896969.51      897229.08     -3614.479      -3051.7452     -1250.2947      5766.1934      9741.8995      15508.093      132015.4       40.413972      40.413972      80.827943          16004 
     61000   2817.072       898958.37      370.90722      897502.49      900165.29      899207.31      261.98106     -562.02807      1826.819       5827.2546      9826.6         15653.855      131992.23      40.411607      40.411607      80.823215          16004 
     62000   2788.7789      900875.71      378.1707       901298.23      899666.87      901662.02      1255.4197     -3964.2787     -345.90791      5768.7289      9850.4216      15619.15       131900.51      40.402244      40.402244      80.804488          16004 
     63000   2811.1248      904086.72      385.45909      902148.85      905961.72      904149.59     -440.97806     -62.625907      2608.4717      5814.9525      9865.6683      15680.621      131832.06      40.395254      40.395254      80.790509          16004 
     64000   2797.4425      899976.41      392.73064      900291.53      902030.48      897607.22      573.9474      -279.54235      3025.7165      5786.65        9869.8762      15656.526      131943.46      40.406629      40.406629      80.813259          16004 
     65000   2769.7542      893592.67      400.01166      894209.74      891553.24      895015.04     -547.3997      -359.66622      1839.6407      5729.3754      9799.9121      15529.287      132093.23      40.421912      40.421912      80.843824          16004 
     66000   2804.9446      894500.16      407.29146      894567.58      892122.48      896810.43      3415.881      -2377.9276     -4085.4053      5802.1684      9680.8625      15483.031      132072.13      40.41976       40.41976       80.83952           16004 
     67000   2798.7425      900996.35      414.57437      900612.64      900585.6       901790.82     -1551.7237     -603.63881      4607.665       5789.339       9763.95        15553.289      131904.77      40.40268       40.40268       80.80536           16004 
     68000   2800.0234      901393.66      421.87603      901882.01      900664.78      901634.19      1555.475       2012.011      -2278.0854      5791.9886      9795.6208      15587.609      131890.61      40.401233      40.401233      80.802467          16004 
     69000   2826.2993      899413.6       429.1466       897563.32      899864.35      900813.14     -4008.6256     -1785.6247      505.48041      5846.3418      9718.1446      15564.486      131961.49      40.408469      40.408469      80.816939          16004 
     70000   2808.281       896987.76      436.41044      896203.43      896305.79      898454.08      446.91706      248.11118     -1542.9473      5809.0698      9794.2064      15603.276      132010.7       40.413492      40.413492      80.826985          16004 
     71000   2765.3006      899813.36      443.66845      899427.76      899209.58      900802.74     -2282.0917     -1964.5059     -2574.3346      5720.1629      9787.4242      15507.587      131938.37      40.40611       40.40611       80.81222           16004 
     72000   2801.459       902441.77      450.92481      901855.67      903545.32      901924.31      2113.6197     -273.11324     -5425.7553      5794.9584      9874.7245      15669.683      131843.08      40.39638       40.39638       80.79276           16004 
     73000   2768.8295      908954.84      458.18321      908027.49      908284.38      910552.63      2333.5573     -957.15733      3486.7217      5727.4625      9906.3983      15633.861      131656.6       40.377326      40.377326      80.754651          16004 
     74000   2810.7937      899105.56      465.44539      899485.91      898960.12      898870.65     -311.3979       383.22807     -3531.8737      5814.2677      9800.5779      15614.846      131970.84      40.409424      40.409424      80.818848          16004 
     75000   2793.5548      898479.37      472.7093       897268.91      901139.13      897030.07      2521.2415     -1302.6115     -278.87604      5778.608       9748.326       15526.934      131969.28      40.409265      40.409265      80.818529          16004 
     76000   2813.3424      899752.5       479.96374      901618.36      898420.14      899219.01      280.29634     -565.14447     -2364.0096      5819.5397      9773.5284      15593.068      131944.9       40.406776      40.406776      80.813553          16004 
     77000   2794.7136      900059.19      487.21635      901130.01      899113.9       899933.67     -3245.639      -273.29377      2211.5068      5781.005       9764.9908      15545.996      131931.02      40.405359      40.405359      80.810718          16004 
     78000   2795.2004      899189.03      494.48126      900271.39      898257.98      899037.72     -2923.5528     -2770.8441     -1453.9153      5782.012       9802.8336      15584.846      131961.65      40.408486      40.408486      80.816972          16004 
     79000   2820.4201      897998.66      501.74117      899882         897974.09      896139.89      3315.8463      4343.9894      469.95129      5834.1802      9739.2767      15573.457      132014.8       40.413911      40.413911      80.827822          16004 
     80000   2764.3541      894409.44      509.00218      895509.19      894935.43      892783.68     -221.55265     -4080.1476      958.20364      5718.205       9702.0508      15420.256      132077.53      40.42031       40.42031       80.840621          16004 
     81000   2778.8946      898690.41      516.27169      899373.84      898262.57      898434.8      -2563.0482     -358.63569      3253.1261      5748.2828      9818.044       15566.327      131999.77      40.412377      40.412377      80.824753          16004 
     82000   2788.3266      903763.83      523.54313      903022.12      903522.02      904747.34     -1222.9091     -965.88124     -1176.4961      5767.7933      9863.0952      15630.888      131845.28      40.396604      40.396604      80.793209          16004 
     83000   2776.5809      903682.79      530.80721      904440.55      902896.26      903711.57     -4031.1754      1921.9908     -2159.0087      5743.4968      9870.4525      15613.949      131809.72      40.392972      40.392972      80.785944          16004 
     84000   2796.7961      904411.23      538.06966      904714.26      904455.53      904063.9       3109.7727     -1188.9685      168.66648      5785.3129      9817.6802      15602.993      131837.73      40.395833      40.395833      80.791667          16004 
     85000   2810.2688      901567.96      545.33883      902098.04      900422.28      902183.57      3012.6919     -139.3052       156.36533      5813.1818      9852.552       15665.734      131894.83      40.401664      40.401664      80.803329          16004 
     86000   2784.6197      896388.51      552.60948      895730.23      897375.8       896059.5      -2259.98       -636.0053      -1603.7212      5760.1255      9744.021       15504.146      132019.81      40.414422      40.414422      80.828843          16004 
     87000   2814.4298      892648.14      559.88011      892221.47      891994.13      893728.81      2165.6244      5184.2398     -1545.155       5821.7891      9712.9117      15534.701      132111.65      40.423791      40.423791      80.847582          16004 
     88000   2773.8346      896547.05      567.16832      896929.29      898461.04      894250.84      2885.4204      2174.0777      3092.7515      5737.8158      9770.1006      15507.916      131987.28      40.411102      40.411102      80.822204          16004 
     89000   2784.4854      898449.57      574.44703      897435.8       898836.04      899076.86     -1281.2869      17.441651      95.450505      5759.8476      9811.0889      15570.936      131949.2       40.407215      40.407215      80.814431          16004 
     90000   2830.4783      901806.35      581.71445      902044.91      902018.98      901355.17      1931.9986      208.26356      4968.9194      5854.9862      9837.7303      15692.717      131924.59      40.404703      40.404703      80.809406          16004 
     91000   2782.3039      904704.5       588.98107      907138.25      904303.86      902671.38      2339.292      -1663.5725      2034.7383      5755.335       9875.1179      15630.453      131838.9       40.395953      40.395953      80.791906          16004 
     92000   2817.3274      901808.63      596.24851      901847.5       901847.28      901731.12     -110.2605      -2658.9422     -2252.6969      5827.7829      9852.1379      15679.921      131901.42      40.402338      40.402338      80.804676          16004 
     93000   2780.2043      892950.02      603.50733      893687.96      892569.12      892592.98     -82.316097     -677.03748      541.3057       5750.9919      9691.7157      15442.708      132125.15      40.425168      40.425168      80.850337          16004 
     94000   2829.5138      894303.49      610.76738      894045.52      895277.02      893587.92     -1515.4748     -879.90138     -323.4596       5852.9911      9713.975       15566.966      132135.6       40.426234      40.426234      80.852468          16004 
     95000   2805.7999      898926.49      618.03512      898493.25      900436.02      897850.19      1530.5791      1187.2512     -463.52231      5803.9376      9752.7264      15556.664      131950.41      40.407339      40.407339      80.814679          16004 
     96000   2810.5919      901127.17      625.32275      900177.12      901509.84      901694.53     -4911.1367     -173.55474      2588.5251      5813.8502      9789.3586      15603.209      131922.41      40.40448       40.40448       80.80896           16004 
     97000   2778.4907      902062.9       632.60945      901879.17      903078.75      901230.77      2652.6573      59.165576      2663.9179      5747.4472      9807.4565      15554.904      131867.92      40.398917      40.398917      80.797834          16004 
     98000   2784.0324      903727.94      639.88476      904836.85      903979.52      902367.43     -4549.2356      5946.2255     -1482.4625      5758.9106      9866.2673      15625.178      131814.07      40.393417      40.393417      80.786833          16004 
     99000   2795.9641      902205.58      647.17962      902189.29      903075.17      901352.27     -6735.7696     -708.58794      3109.0921      5783.5918      9806.9674      15590.559      131853.68      40.397462      40.397462      80.794925          16004 
    100000   2780.0511      897111.43      654.47233      897981.86      896401.18      896951.24     -2257.1065      4241.8716      400.89058      5750.6749      9750.6005      15501.275      132014.31      40.41386       40.41386       80.827721          16004 
    101000   2820.771       892475.07      661.7415       893165.45      888957.3       895302.45     -1468.3909     -122.63808     -1240.9672      5834.9062      9702.6123      15537.518      132144.77      40.427169      40.427169      80.854339          16004 
    102000   2796.256       897364.5       669.0342       899564.82      896034.95      896493.75     -2689.1234     -196.981       -1296.8549      5784.1955      9726.0963      15510.292      132004.33      40.412842      40.412842      80.825684          16004 
    103000   2843.023       899952.42      676.3172       899676.8       899965.87      900214.59      4104.915      -1176.9477     -2279.1349      5880.9356      9781.1349      15662.07       131966.68      40.409         40.409         80.818             16004 
    104000   2788.8127      901139.8       683.6023       900621.56      901308.91      901488.92     -622.12756     -3194.4769      2235.8698      5768.7988      9820.0014      15588.8        131878.96      40.400044      40.400044      80.800087          16004 
    105000   2803.4784      902557.98      690.89233      903549.16      901923.34      902201.46      2966.1517     -1442.7155      1491.8706      5799.1354      9834.8052      15633.941      131886.57      40.400822      40.400822      80.801643          16004 
    106000   2787.9601      897834.5       698.17054      898405.65      896535.15      898562.68      54.416742     -4354.3368      4653.0407      5767.0351      9687.9521      15454.987      132017.55      40.414191      40.414191      80.828382          16004 
    107000   2811.0223      891759.93      705.46183      891852.97      890824.84      892601.99      321.28538      3308.925      -2068.0956      5814.7404      9639.7879      15454.528      132195.24      40.432315      40.432315      80.86463           16004 
    108000   2784.9912      898051.2       712.74454      898506.76      895545.6       900101.25     -1412.5813     -2928.1559     -4255.3727      5760.8939      9724.4318      15485.326      132000.75      40.412477      40.412477      80.824954          16004 
    109000   2778.2147      900510.99      720.03794      899709.04      902031.72      899792.21     -1932.4583      1046.5305     -3220.9276      5746.8763      9875.3722      15622.249      131927.82      40.405033      40.405033      80.810065          16004 
    110000   2780.5201      902868.57      727.34306      901335.1       903121.87      904148.76      1927.6564      1683.9493     -1523.9626      5751.6451      9833.2545      15584.9        131870.66      40.399197      40.399197      80.798393          16004 
    111000   2799.8277      903671.39      734.62851      902715.68      903153.69      905144.81     -3302.0112     -855.72265     -2307.5866      5791.5838      9841.0406      15632.624      131858.41      40.397946      40.397946      80.795891          16004 
    112000   2795.2232      903249.32      741.91665      904422.1       903321.81      902004.05     -4398.8996      1527.017       1471.5829      5782.0593      9832.2434      15614.303      131883.16      40.400473      40.400473      80.800946          16004 
    113000   2812.4489      895680.52      749.21019      896480.14      894935.17      895626.23     -2929.8357     -2319.0057     -1105.0042      5817.6914      9793.5789      15611.27       132056.41      40.418156      40.418156      80.836312          16004 
    114000   2776.9901      889096.02      756.49441      890025.7       886910.06      890352.29     -3711.3145      2600.5413      3882.4834      5744.3431      9660.8728      15405.216      132237.85      40.436658      40.436658      80.873317          16004 
    115000   2807.516       897347.29      763.78793      896267.86      898608.46      897165.55     -5385.7436      935.01345     -1916.6836      5807.4875      9777.7949      15585.282      132056.03      40.418118      40.418118      80.836236          16004 
    116000   2788.2454      900524.22      771.07501      900627.88      900713.24      900231.55     -4701.4609      3522.5372     -1553.4065      5767.6252      9781.1191      15548.744      131864.5       40.398567      40.398567      80.797135          16004 
    117000   2805.8314      902551.93      778.35651      904265.34      903287.47      900102.97      932.58005      2715.2562      719.91101      5804.0029      9850.3448      15654.348      131864.98      40.398616      40.398616      80.797232          16004 
    118000   2769.1075      899095.82      785.65559      899418.43      900423.66      897445.37     -937.06581     -707.79944     -5660.0431      5728.0376      9760.3234      15488.361      131941.4       40.406419      40.406419      80.812838          16004 
    119000   2806.2752      898725.59      792.93033      898589.3       900322.22      897265.25     -693.56833     -3161.4373     -6070.3853      5804.9208      9788.5724      15593.493      131994.79      40.411869      40.411869      80.823737          16004 
    120000   2803.454       896075.3       800.20545      896246.09      897442.91      894536.9      -392.57777      3646.9921      1996.5219      5799.0851      9694.5082      15493.593      132057.97      40.418315      40.418315      80.836631          16004 
    121000   2782.6082      896630.13      807.46674      896586.1       898140.12      895164.18      4572.9056     -359.85941      1113.0286      5755.9644      9753.86        15509.824      132016.42      40.414076      40.414076      80.828151          16004 
    122000   2837.5521      903319.97      814.72972      904963.56      904283.09      900713.27     -329.06222     -1792.6922      92.445986      5869.6186      9778.5119      15648.131      131868.54      40.39898       40.39898       80.797959          16004 
    123000   2753.4325      903023.56      821.99274      903784.54      901467.68      903818.46      128.11331     -542.20232     -2726.337       5695.6131      9823.823       15519.436      131845.39      40.396616      40.396616      80.793232          16004 
    124000   2842.8771      901039.5       829.2621       901033.07      901434.34      900651.09      917.25411     -614.11018     -168.09429      5880.6337      9747.3572      15627.991      131942.54      40.406535      40.406535      80.813071          16004 
    125000   2764.0122      899629.22      836.54132      897970.81      901640.06      899276.79     -1137.2241      103.22963     -343.05199      5717.4978      9780.2854      15497.783      131932.12      40.405472      40.405472      80.810944          16004 
    126000   2790.7438      896358.96      843.80885      898174.33      894786.82      896115.72     -2175.5715     -487.53386     -3911.5186      5772.7934      9794.9055      15567.699      132056.46      40.418161      40.418161      80.836323          16004 
    127000   2787.9821      891268.98      851.07873      890521.29      892559.68      890725.97     -3422.9742     -4259.1425      3655.9241      5767.0806      9615.4823      15382.563      132147.47      40.427445      40.427445      80.854889          16004 
    128000   2817.7146      897345.61      858.34678      896306.87      898861.68      896868.29     -428.45443     -896.1462      -2331.7107      5828.5839      9737.3094      15565.893      132034.74      40.415945      40.415945      80.83189           16004 
    129000   2798.5367      903827.8       865.61692      901742.53      904321.81      905419.05     -1471.6198      4162.5086     -348.82335      5788.9135      9884.4744      15673.388      131867.63      40.398887      40.398887      80.797775          16004 
    130000   2811.0621      904239.43      872.89562      905329.27      902954.94      904434.09     -3865.8394     -181.93713     -1892.4822      5814.8228      9815.8085      15630.631      131868.34      40.39896       40.39896       80.79792           16004 
    131000   2820.7615      901694.53      880.18001      901813.93      899504.9       903764.77      84.068313     -5137.8632      398.58533      5834.8865      9831.1731      15666.06       131899.05      40.402096      40.402096      80.804191          16004 
    132000   2798.7259      897294.91      887.45778      895947.08      896399         899538.64     -1595.9627     -3354.5733      511.92596      5789.3046      9721.1645      15510.469      132004.56      40.412865      40.412865      80.82573           16004 
    133000   2802.06        891581.71      894.72576      892285.16      890861.37      891598.59     -773.56562      1871.6921      2817.4627      5796.2015      9680.3283      15476.53       132134.2       40.426091      40.426091      80.852181          16004 
    134000   2835.1553      895998.85      901.99205      895544.2       898025.78      894426.57      2703.4143      1276.1044     -2837.0794      5864.6607      9751.528       15616.189      132039.69      40.41645       40.41645       80.832901          16004 
    135000   2784.4726      903321.86      909.25803      903589.2       903372.91      903003.46      1903.8799     -534.94286      1633.0304      5759.821       9879.8125      15639.634      131842.05      40.396275      40.396275      80.79255           16004 
    136000   2832.0559      903157.41      916.52545      901554.65      905075.18      902842.4       1007.3826      580.87495     -524.38951      5858.2496      9814.3507      15672.6        131891.36      40.40131       40.40131       80.80262           16004 
    137000   2789.1393      901980.23      923.78845      901674.42      903795.06      900471.21     -965.37897      2918.9662     -2462.5338      5769.4743      9820.4628      15589.937      131864.98      40.398617      40.398617      80.797233          16004 
    138000   2787.4496      898540.67      931.06228      899798.95      897703.97      898119.09     -857.35498      1481.4415      1141.9049      5765.9792      9830.5736      15596.553      131954.7       40.407777      40.407777      80.815554          16004 
    139000   2795.3716      894514.39      938.32826      892477.95      894322.38      896742.83     -2205.4668      3560.2785     -5335.0815      5782.3662      9693.4638      15475.83       132096.47      40.422242      40.422242      80.844485          16004 
    140000   2812.5036      893410.05      945.59149      891459.72      894301.57      894468.85      2019.2194      2790.7378     -776.22134      5817.8047      9686.954       15504.759      132161.38      40.428863      40.428863      80.857726          16004 
    141000   2779.9395      898357.56      952.85572      897549.93      898638.89      898883.87      2082.1044     -3070.1674     -200.21189      5750.444       9706.1127      15456.557      131991.44      40.411526      40.411526      80.823053          16004 
    142000   2800.9999      903298.28      960.12525      903831.02      903483.02      902580.8      -736.87729      4789.7357     -314.83275      5794.0087      9855.0114      15649.02       131855.24      40.397622      40.397622      80.795244          16004 
    143000   2794.5685      904284.74      967.39186      905647.07      903213.54      903993.61      2763.9543     -2843.3401      4067.8548      5780.705       9820.4832      15601.188      131817.47      40.393764      40.393764      80.787528          16004 
    144000   2794.6658      903474.66      974.66486      905417.89      901249.76      903756.32      2126.1327     -2477.325       1168.3874      5780.9061      9793.1628      15574.069      131807.13      40.392708      40.392708      80.785415          16004 
    145000   2788.3944      904015.78      981.94265      903634.76      904299.7       904112.89      981.5338       855.36442     -1108.0472      5767.9335      9906.8008      15674.734      131812.54      40.393261      40.393261      80.786522          16004 
    146000   2777.6842      903198.44      989.23113      903874.71      902632.56      903088.05      3408.2187      925.27668     -1579.4999      5745.779       9867.7888      15613.568      131868.07      40.398932      40.398932      80.797863          16004 
    147000   2822.8433      897170.13      996.52795      898262.47      896577.72      896670.22      1380.3059     -2201.3127     -4639.0141      5839.1928      9808.0794      15647.272      132034.28      40.415898      40.415898      80.831797          16004 
    148000   2814.5785      895558.7       1003.8066      894452.9       896220.04      896003.16     -388.05118      1480.2448      377.75376      5822.0966      9720.9118      15543.008      132051.34      40.417638      40.417638      80.835277          16004 
    149000   2793.2648      897752.23      1011.1036      896716.13      899909.12      896631.43      2507.0446      3011.3131      1219.0064      5778.0082      9755.1662      15533.174      132005.16      40.412926      40.412926      80.825853          16004 
    150000   2773.1307      903792.58      1018.39        902791.76      904473.57      904112.4      -4474.2595     -665.15757      954.99366      5736.3598      9899.0422      15635.402      131838.22      40.395883      40.395883      80.791767          16004 
    151000   2805.0821      903431.03      1025.6793      904657.83      900839.17      904796.09      4342.4597      2137.5034      4844.6282      5802.4529      9815.2206      15617.673      131810.68      40.39307       40.39307       80.786141          16004 
    152000   2792.3379      902557.46      1032.9826      903156.17      903295.04      901221.17      1058.9998     -3085.5067     -1890.8708      5776.0909      9870.7768      15646.868      131869.68      40.399097      40.399097      80.798194          16004 
    153000   2802.9844      897488.06      1040.2718      897289.13      898576.36      896598.69      528.75439      774.62647     -890.1231       5798.1137      9737.6547      15535.768      131998.93      40.412291      40.412291      80.824581          16004 
    154000   2819.022       891750.12      1047.5664      891589.14      890481.02      893180.2       3523.0551     -3148.8262      485.39031      5831.2881      9714.4059      15545.694      132127.56      40.425413      40.425413      80.850827          16004 
    155000   2796.6624      895290.49      1054.8613      894675.13      895692.31      895504.03     -3289.5539      3993.2608      1510.2549      5785.0364      9725.1986      15510.235      132040.33      40.416516      40.416516      80.833032          16004 
    156000   2808.7432      897663.03      1062.1406      896571.77      898033.72      898383.6       3563.2726     -2621.9589      2416.612       5810.026       9748.1775      15558.204      131971.72      40.409514      40.409514      80.819028          16004 
    157000   2828.9279      899535.26      1069.4368      900588.51      898050.61      899966.65      4329.6337     -541.40022     -2989.0466      5851.7791      9831.1652      15682.944      131938.84      40.406158      40.406158      80.812316          16004 
    158000   2799.7691      901312.81      1076.7266      900850.42      901508.45      901579.56      3712.5941     -1662.8052      1846.8724      5791.4627      9821.3769      15612.84       131876.19      40.399761      40.399761      80.799523          16004 
    159000   2802.0666      903426.95      1084.0068      903516.64      902752.94      904011.27      3167.5623     -917.89777     -2877.7949      5796.2152      9882.3019      15678.517      131832.25      40.395274      40.395274      80.790548          16004 
    160000   2795.9215      901371.36      1091.3016      902879.62      899695.53      901538.92     -436.56794      2.8656082     -3250.8427      5783.5037      9887.8257      15671.329      131904.95      40.402697      40.402697      80.805395          16004 
    161000   2753.3338      894464.64      1098.5813      892983.06      894422.88      895987.97     -2102.1766     -3552.0793     -818.14094      5695.4088      9709.4422      15404.851      132029.5       40.41541       40.41541       80.83082           16004 
    162000   2806.9469      894174.34      1105.875       893725.73      893722.46      895074.83     -1410.1242     -5068.9846     -1908.0708      5806.3104      9721.2975      15527.608      132105.11      40.423124      40.423124      80.846249          16004 
    163000   2768.6686      897355.23      1113.1685      897845.15      894947.46      899273.08     -469.50406      3305.2311      1031.4134      5727.1297      9772.9911      15500.121      131968.26      40.409161      40.409161      80.818322          16004 
    164000   2809.9468      900122.91      1120.4449      899276.82      899624.52      901467.4      -2926.2348      428.7593       668.18759      5812.5157      9782.7248      15595.241      131932.17      40.405477      40.405477      80.810954          16004 
    165000   2761.781       900522.76      1127.7332      900314.78      899240.21      902013.27      1564.9029     -119.07377      2321.0401      5712.8824      9839.0144      15551.897      131926.29      40.404877      40.404877      80.809754          16004 
    166000   2804.3475      903944.48      1135.0182      903740.79      904280.39      903812.26      1637.156       5709.8684      1187.7058      5800.9333      9880.5853      15681.519      131846.12      40.39669       40.39669       80.793381          16004 
    167000   2796.4559      901082.77      1142.301       901586.62      900976.29      900685.4      -874.13493      3618.0677     -885.10325      5784.6091      9768.7105      15553.32       131861.34      40.398245      40.398245      80.79649           16004 
    168000   2805.9401      891120.72      1149.601       890371.35      889591.75      893399.07     -1630.4669     -2498.264      -63.092349      5804.2278      9717.7442      15521.972      132143.46      40.427035      40.427035      80.854071          16004 
    169000   2800.1453      894982.32      1156.8895      895945.29      893666.86      895334.8       3437.0539     -3624.7032     -464.54302      5792.2408      9776.2129      15568.454      132066.79      40.419215      40.419215      80.83843           16004 
    170000   2791.9534      897962.18      1164.1622      899576.36      898283.18      896026.99     -217.66775     -231.15984      4478.3577      5775.2955      9814.652       15589.947      131957.57      40.40807       40.40807       80.816139          16004 
    171000   2820.8839      899906.3       1171.4263      899592.85      898979.56      901146.49      1564.6282     -1947.9207      1733.6666      5835.1398      9737.599       15572.739      131919.73      40.404206      40.404206      80.808413          16004 
    172000   2809.8593      902011.98      1178.7025      903553.41      901406.95      901075.59     -3947.1483      959.99108      2872.6498      5812.3348      9840.733       15653.068      131908.69      40.40308       40.40308       80.806159          16004 
    173000   2766.9923      903556.82      1185.9791      902160.4       905300.74      903209.32      4271.4127      276.71952     -1384.2059      5723.6622      9834.9967      15558.659      131823.85      40.394416      40.394416      80.788832          16004 
    174000   2767.1455      900521.29      1193.251       900199.48      900569.94      900794.46     -207.64465     -2657.2395     -3946.8469      5723.9791      9899.3258      15623.305      131930.81      40.405338      40.405338      80.810676          16004 
    175000   2746.2884      894352.81      1200.5301      893953.59      893850.72      895254.13     -647.79965     -5592.6695     -679.55933      5680.8352      9765.4005      15446.236      132073.75      40.419925      40.419925      80.83985           16004 
    176000   2796.9861      896930.69      1207.7973      897662.52      896296.12      896833.44      593.60932      3654.3121      393.08826      5785.7059      9766.9626      15552.668      132052.82      40.41779       40.41779       80.83558           16004 
    177000   2808.6009      899958.41      1215.0569      898656.29      900606.74      900612.2      -1379.5326      3671.6155      2212.6838      5809.7317      9682.4031      15492.135      131952.53      40.407555      40.407555      80.81511           16004 
    178000   2796.5427      900665.98      1222.3196      900545.69      899547.4       901904.85      1781.9971     -3249.614      -2694.1354      5784.7888      9817.7882      15602.577      131929.12      40.405166      40.405166      80.810332          16004 
    179000   2771.6222      903629.52      1229.5832      904541.56      903753.62      902593.37      5435.5526     -3971.7681      1125.5304      5733.2394      9830.3385      15563.578      131830.19      40.395064      40.395064      80.790127          16004 
    180000   2791.354       899831.2       1236.8459      899929.2       898790.17      900774.22      2875.1804      3808.606      -1329.8297      5774.0555      9828.5555      15602.611      131945.78      40.406866      40.406866      80.813733          16004 
    181000   2793.6984      893096.43      1244.1203      890978.41      894791.68      893519.18      615.48053      917.68228      352.44038      5778.9051      9669.2339      15448.139      132127.7       40.425428      40.425428      80.850857          16004 
    182000   2825.1556      894358.9       1251.3951      894061.27      895147.28      893868.15      971.90313      2342.2017     -520.39776      5843.9759      9718.5172      15562.493      132100.04      40.422607      40.422607      80.845214          16004 
    183000   2766.1842      898901.01      1258.6637      901097.64      897359.54      898245.86     -2446.8008     -4729.5188     -2494.4369      5721.9907      9800.3862      15522.377      131948.19      40.407112      40.407112      80.814224          16004 
    184000   2800.3023      900926.37      1265.9216      900936.6       900814.66      901027.85      878.87403     -62.790049      4276.004       5792.5657      9824.3873      15616.953      131925.36      40.404782      40.404782      80.809563          16004 
    185000   2792.2882      902749.77      1273.1858      903040.22      902763.59      902445.5      -639.31462      2322.0072      6317.4115      5775.988       9783.3852      15559.373      131854.46      40.397542      40.397542      80.795085          16004 
    186000   2825.3356      901475.21      1280.4485      901310.87      901925.12      901189.65     -2763.4028     -3936.7922      3371.4445      5844.3483      9797.6815      15642.03       131952.67      40.407569      40.407569      80.815138          16004 
    187000   2773.0172      894723.57      1287.7147      896231.63      894970.93      892968.14     -3583.029      -1296.5598     -1773.2768      5736.125       9671.7681      15407.893      132051.85      40.417691      40.417691      80.835382          16004 
    188000   2816.7516      892831.72      1294.9873      892624.48      893822.95      892047.72      2642.6464     -1652.1222      3012.1023      5826.5918      9677.1004      15503.692      132120.59      40.424703      40.424703      80.849406          16004 
    189000   2799.2895      899403.66      1302.2577      898612.28      900498.08      899100.61      3290.9723      688.1264       3859.4919      5790.4706      9791.2626      15581.733      131937.29      40.405999      40.405999      80.811998          16004 
    190000   2819.5401      902585.89      1309.5278      903635.92      901836.28      902285.47     -221.14822     -2179.1749      5802.8917      5832.36        9905.9356      15738.296      131851.49      40.397239      40.397239      80.794478          16004 
    191000   2810.988       904000.55      1316.7928      904433.12      903417.07      904151.47      3123.8148     -4033.9446      1533.525       5814.6694      9784.8839      15599.553      131825.21      40.394555      40.394555      80.78911           16004 
    192000   2832.8363      901384.98      1324.06        901685.18      900797.3       901672.45     -740.47544      3904.1399      790.08156      5859.8638      9780.8038      15640.668      131884.16      40.400575      40.400575      80.801151          16004 
    193000   2806.7937      900186.88      1331.3353      900104.79      899352.81      901103.04      1821.8805      1360.3738     -3189.6536      5805.9933      9722.1508      15528.144      131943.22      40.406605      40.406605      80.81321           16004 
    194000   2817.1053      895997.79      1338.6201      894384.5       898493.28      895115.57      290.66072      206.76228     -3055.8852      5827.3235      9764.011       15591.335      132070.06      40.419549      40.419549      80.839098          16004 
    195000   2782.1065      892819.58      1345.9114      892748.53      894614.51      891095.72      221.48716     -3723.8199     -2138.4089      5754.9267      9605.0977      15360.024      132091.02      40.421687      40.421687      80.843374          16004 
    196000   2822.1903      894986.18      1353.1955      895653.98      894741.96      894562.61     -4449.891      -1509.9602     -289.73262      5837.842       9720.363       15558.205      132041.94      40.41668       40.41668       80.83336           16004 
    197000   2776.7062      900199.59      1360.4965      900447.43      899612.34      900539        -1214.8273      1498.686      -2415.0832      5743.7559      9842.7925      15586.548      131915.06      40.403731      40.403731      80.807461          16004 
    198000   2786.0116      902061.98      1367.7726      902000.3       900925.14      903260.52     -497.70076     -777.24523      1832.6219      5763.0046      9833.9671      15596.972      131900.25      40.402218      40.402218      80.804436          16004 
    199000   2795.2483      900532.19      1375.0606      899514.57      901768.45      900313.55      487.8597       1805.7414     -3520.0541      5782.1112      9815.1819      15597.293      131915.38      40.403763      40.403763      80.807526          16004 
    200000   2768.5178      896342.23      1382.3639      895270.59      896628.33      897127.79      1691.9742     -659.56015     -1630.7366      5726.8177      9764.4615      15491.279      132041.69      40.416655      40.416655      80.833309          16004 
    201000   2806.8773      891927.04      1389.6362      891462.72      891699.12      892619.26      3219.675      -302.14542      2322.2941      5806.1663      9634.4831      15440.649      132146.44      40.427339      40.427339      80.854678          16004 
    202000   2796.4552      896282.26      1396.9324      896082.5       895556.58      897207.69     -516.23822      293.18705      519.9991       5784.6077      9748.9924      15533.6        132018.99      40.414338      40.414338      80.828676          16004 
    203000   2783.9848      902558.61      1404.213       900022.95      902958.4       904694.49      5272.0314     -266.29136      4764.6956      5758.812       9822.5634      15581.375      131853.26      40.39742       40.39742       80.794839          16004 
    204000   2819.1327      904693.51      1411.4956      905823.55      904341.67      903915.31      3960.7174     -1021.3881      3850.6704      5831.5172      9852.5167      15684.034      131828.48      40.394889      40.394889      80.789778          16004 
    205000   2786.1064      902047.49      1418.7899      902731.71      902018.32      901392.44      5496.4657      2504.7545      5113.7144      5763.2006      9787.3709      15550.572      131858.39      40.397944      40.397944      80.795888          16004 
    206000   2783.1969      900075.75      1426.0623      899542.32      899678.21      901006.73      2700.2313     -2889.9959     -1992.1274      5757.1823      9818.0571      15575.239      131917.03      40.403932      40.403932      80.807863          16004 
    207000   2790.0913      893989.59      1433.3537      894844.73      893994.38      893129.65      3210.2077     -1422.9444     -364.93405      5771.4436      9737.7276      15509.171      132080.15      40.420578      40.420578      80.841156          16004 
    208000   2805.0849      894610.66      1440.6414      894966.36      894140.09      894725.52      1988.0925     -2912.6535      982.87035      5802.4586      9684.5758      15487.034      132040.75      40.416559      40.416559      80.833117          16004 
    209000   2801.0697      897120.6       1447.9122      895751.96      898391.78      897218.05      730.14272      1724.6907      1149.9835      5794.1531      9786.463       15580.616      131969.91      40.409329      40.409329      80.818658          16004 
    210000   2762.1411      901254.74      1455.2107      901818.19      900900.56      901045.46      5289.8911      265.16146      3213.4598      5713.6273      9858.0327      15571.66       131835.36      40.395592      40.395592      80.791183          16004 
    211000   2793.41        903244.54      1462.5034      901056.74      904946.62      903730.27      1492.5087     -2659.5422     -2961.9716      5778.3086      9904.3999      15682.709      131855.02      40.397599      40.397599      80.795198          16004 
    212000   2799.096       904315.42      1469.7906      905677.74      904364.92      902903.6      -3798.0437      1480.6565      1282.6146      5790.0702      9916.0679      15706.138      131786.28      40.390578      40.390578      80.781156          16004 
    213000   2803.1774      903413.2       1477.0904      905534         902371.99      902333.62      1288.262      -1255.4421     -5038.4964      5798.5129      9898.4922      15697.005      131842.6       40.396331      40.396331      80.792662          16004 
    214000   2799.6933      898078.28      1484.3708      899330.96      899860.9       895042.97     -164.19231      1105.0206      240.44994      5791.3059      9721.5352      15512.841      131990.51      40.411431      40.411431      80.822863          16004 
    215000   2781.2806      896856.68      1491.6599      897223.05      896758.99      896588.01      3037.2475     -3351.5483     -2017.2004      5753.2183      9773.5526      15526.771      132053.16      40.417824      40.417824      80.835648          16004 
    216000   2770.6941      898083.93      1498.9486      898414.97      899217.23      896619.6       2378.2652     -2596.7403      3685.657       5731.3195      9836.4536      15567.773      132004.7       40.412879      40.412879      80.825759          16004 
    217000   2812.6302      901794.66      1506.2243      902594.74      901972.74      900816.5      -1791.7021      1837.8679     -315.78685      5818.0666      9771.134       15589.201      131901.49      40.402345      40.402345      80.804689          16004 
    218000   2831.0134      907122.79      1513.5241      906829.89      906188.11      908350.36     -1608.7049      2070.6022      3798.874       5856.0931      9957.9006      15813.994      131742.68      40.386123      40.386123      80.772247          16004 
    219000   2792.8329      904904.05      1520.8035      905793.46      904828.07      904090.64      3307.4261     -660.15434      300.58853      5777.1147      9880.7558      15657.871      131795.7       40.39154       40.39154       80.78308           16004 
    220000   2791.7437      901421.64      1528.0646      903630.75      900244.21      900389.95     -2228.8474      589.89086      2362.2734      5774.8618      9765.8369      15540.699      131882.94      40.400451      40.400451      80.800901          16004 
    221000   2791.1275      898316.46      1535.3208      899930.96      896003.11      899015.29      2166.5721      4752.871      -55.028176      5773.587       9806.3962      15579.983      131996.97      40.412091      40.412091      80.824183          16004 
    222000   2767.3571      896379.75      1542.5766      896487         895591.67      897060.56      870.8944      -1427.6035     -601.69897      5724.4169      9719.8191      15444.236      131985.75      40.410946      40.410946      80.821892          16004 
    223000   2820.5321      895137.14      1549.8309      895499.68      893865.48      896046.26     -5115.4929      5432.1614      3539.6481      5834.412       9730.2897      15564.702      132030.15      40.415477      40.415477      80.830954          16004 
    224000   2800.9128      902397.87      1557.0869      902097.94      901376.23      903719.44     -1609.9806     -1250.5693     -2134.855       5793.8284      9817.6338      15611.462      131878.52      40.399999      40.399999      80.799998          16004 
    225000   2826.8881      907040.88      1564.3527      906437.56      907130.25      907554.81     -1533.4366      1427.2946     -448.65296      5847.5597      9825.6229      15673.183      131763.72      40.388273      40.388273      80.776547          16004 
    226000   2769.9744      904330.32      1571.6141      904599.13      903529.2       904862.63      821.03168     -534.90877      3113.3122      5729.8308      9910.4584      15640.289      131825.76      40.394611      40.394611      80.789222          16004 
    227000   2818.2175      900157.03      1578.869       899442.96      900415.73      900612.39      1818.8861     -2004.2728     -3798.2877      5829.6241      9846.8678      15676.492      131932.25      40.405485      40.405485      80.81097           16004 
    228000   2808.713       898274.59      1586.1272      897609.45      898139.37      899074.96     -2063.4443      3755.5761     -693.97762      5809.9635      9749.0394      15559.003      131997.07      40.412102      40.412102      80.824203          16004 
    229000   2784.9055      898454.63      1593.3881      899365.25      898064.32      897934.31      3713.1429      930.89024      1550.9244      5760.7167      9751.2146      15511.931      131969.55      40.409292      40.409292      80.818585          16004 
    230000   2801.0338      898656.55      1600.6492      895964.45      900279.51      899725.68      936.95222     -2524.6299      79.337893      5794.0787      9770.115       15564.194      131994.48      40.411837      40.411837      80.823673          16004 
    231000   2764.8778      901125.3       1607.913       902359.9       901526.41      899489.6      -1656.9791     -3775.4792     -215.10055      5719.2883      9822.7243      15542.013      131876.34      40.399776      40.399776      80.799553          16004 
    232000   2798.0689      910243.08      1615.1894      909557.16      911618.08      909554.01      1271.5612      837.11012      2654.899       5787.9458      9907.5972      15695.543      131661.69      40.377846      40.377846      80.755692          16004 
    233000   2802.8117      904407.34      1622.4556      904333.53      904353.03      904535.44      186.00473     -548.43491      931.567        5797.7565      9881.145       15678.902      131815.8       40.393594      40.393594      80.787187          16004 
    234000   2778.3244      898998.86      1629.7132      898890.66      897584.8       900521.11      6332.4705     -216.672        1614.1249      5747.1032      9746.0413      15493.144      131927.51      40.405001      40.405001      80.810002          16004 
    235000   2803.2623      898113.03      1636.9778      896605.48      899395.88      898337.74     -1440.5483      8107.5369      3346.5758      5798.6885      9797.6301      15596.319      131971.54      40.409495      40.409495      80.818991          16004 
    236000   2763.8717      899199.4       1644.2582      899997.03      896795.81      900805.36     -2834.7077      2837.6764     -1299.522       5717.2071      9709.9343      15427.141      131959.76      40.408293      40.408293      80.816587          16004 
    237000   2790.0777      894756.37      1651.5273      896058.91      891627.85      896582.35      962.1622       606.33828     -3196.5492      5771.4155      9780.2124      15551.628      132078.06      40.420365      40.420365      80.84073           16004 
    238000   2791.4765      895604.36      1658.7931      895450.09      897487.89      893875.08      2012.3717      3139.4511     -2314.9758      5774.3091      9734.3985      15508.708      132021.48      40.414592      40.414592      80.829184          16004 
    239000   2791.068       898605.02      1666.0573      899713.69      897956.77      898144.6      -1938.1853      3991.3583      1726.1343      5773.4641      9829.5262      15602.99       131981.62      40.410524      40.410524      80.821049          16004 
    240000   2765.7394      903542.68      1673.3221      904408.18      903376.87      902842.98      2456.1473     -851.54981      1535.2214      5721.0706      9814.6226      15535.693      131813.89      40.393399      40.393399      80.786798          16004 
    241000   2806.2112      905444.12      1680.5835      905194.6       904629.05      906508.73      789.66826      15.513626      1527.9132      5804.7885      9891.7805      15696.569      131807.22      40.392717      40.392717      80.785435          16004 
    242000   2825.8658      902991.94      1687.8401      902586.64      904368.61      902020.56     -2625.2158     -4487.1679      4267.4616      5845.4449      9810.6468      15656.092      131892.31      40.401407      40.401407      80.802814          16004 
    243000   2785.4625      897179.23      1695.0989      897136.73      896712.86      897688.09     -1980.8904     -1628.4949      325.92857      5761.8687      9822.4731      15584.342      131999.38      40.412337      40.412337      80.824674          16004 
    244000   2793.4009      892456.72      1702.3625      892125.89      892862.07      892382.2      -2124.9501     -1786.3242      165.28331      5778.2897      9692.0628      15470.352      132094.89      40.422082      40.422082      80.844163          16004 
    245000   2818.5357      893726.19      1709.6334      893810.77      894309.32      893058.47      2387.9921     -398.20403      2946.1176      5830.2823      9705.546       15535.828      132063.13      40.418841      40.418841      80.837682          16004 
    246000   2781.0319      896572.99      1716.9133      898624.42      896267.36      894827.19      482.96036      1339.584       5415.8124      5752.7038      9763.6288      15516.333      131982.61      40.410625      40.410625      80.82125           16004 
    247000   2807.8641      903435.29      1724.2211      904293.27      901617.14      904395.48      2192.4834     -3454.8207      1944.0659      5808.2076      9886.123       15694.331      131881         40.400253      40.400253      80.800505          16004 
    248000   2799.2066      905013.72      1731.5157      904940.91      905732.24      904368.01     -1042.8296     -2098.709       1929.1545      5790.299       9893.0377      15683.337      131792.8       40.391244      40.391244      80.782489          16004 
    249000   2791.4602      902713.38      1738.7883      902750.98      903632.36      901756.79      2115.8222     -3669.3286     -3797.6985      5774.2754      9820.6997      15594.975      131832.57      40.395306      40.395306      80.790612          16004 
    250000   2825.1338      899814.07      1746.0713      899273.64      898731.56      901437         9.3773059     -1439.0335      2693.8451      5843.9309      9856.3432      15700.274      132015.65      40.413997      40.413997      80.827995          16004 
    251000   2781.1988      893849.37      1753.3399      893503.41      892868.54      895176.15     -1930.8932      3031.524      -1339.286       5753.0491      9733.8634      15486.912      132088.66      40.421446      40.421446      80.842893          16004 
    252000   2797.3685      897040.69      1760.6243      896114.74      897821.94      897185.4      -1306.5218      584.10031      2038.914       5786.4968      9754.56        15541.057      132016.16      40.41405       40.41405       80.828099          16004 
    253000   2793.9143      902186.1       1767.9085      901969.28      902576.34      902012.67      2475.9671      339.40563      2049.0487      5779.3518      9930.4392      15709.791      131881.31      40.400284      40.400284      80.800569          16004 
    254000   2794.1497      906801.55      1775.1812      906885.12      905689.68      907829.84     -1823.0661      3907.8888     -3473.3596      5779.8386      9858.6507      15638.489      131777.29      40.38966       40.38966       80.779319          16004 
    255000   2810.663       901929.98      1782.4753      901909.59      903398.74      900481.61     -3541.7682     -848.07064     -3794.6728      5813.9973      9831.373       15645.37       131880.25      40.400176      40.400176      80.800351          16004 
    256000   2778.9533      898237.57      1789.7465      899940.77      896701.72      898070.22     -1301.6914      21.852372      895.98441      5748.4042      9736.3035      15484.708      131960.57      40.408375      40.408375      80.816751          16004 
    257000   2813.2055      894579.81      1797.0369      894441.13      895628.74      893669.55      109.95833      43.943999      1724.3834      5819.2564      9739.5919      15558.848      132052.22      40.417729      40.417729      80.835458          16004 
    258000   2765.485       895607.97      1804.3299      895245.3       896079.88      895498.74     -509.78682      28.223461      2100.6125      5720.5442      9723.4878      15444.032      132044.8       40.416971      40.416971      80.833943          16004 
    259000   2837.5864      896425.96      1811.6055      896758.08      895828.93      896690.87     -2407.7857      1613.8774     -2891.7646      5869.6897      9707.1189      15576.809      132026.29      40.415083      40.415083      80.830166          16004 
    260000   2809.2691      901373.51      1818.8943      901231.21      901002.74      901886.58      1700.3143      2336.427       753.63962      5811.1139      9791.6542      15602.768      131918.19      40.40405       40.40405       80.8081            16004 
    261000   2761.9791      904442.76      1826.1738      904815.2       903169.07      905344.02     -595.06424      24.042264      1150.0054      5713.292       9899.5851      15612.877      131786.1       40.390559      40.390559      80.781119          16004 
    262000   2821.3409      903924         1833.4454      903316.36      904379.16      904076.47      4070.5633      1592.4666     -1525.4185      5836.085       9845.4945      15681.58       131844.14      40.396488      40.396488      80.792976          16004 
    263000   2798.4487      903786.6       1840.7337      903717.92      903488.59      904153.28     -803.56115     -1047.9784     -1715.6782      5788.7313      9782.3468      15571.078      131871.11      40.399243      40.399243      80.798486          16004 
    264000   2840.3891      901748.03      1848.0115      902118.33      899740.4       903385.35     -1937.5159     -584.95446      4466.6195      5875.4872      9827.3065      15702.794      131953.9       40.407695      40.407695      80.815391          16004 
    265000   2817.1571      899085.65      1855.2848      899100.23      898988         899168.73     -3164.2535     -2009.0852      1542.2969      5827.4307      9730.3983      15557.829      131971.38      40.409479      40.409479      80.818959          16004 
    266000   2831.4811      900762.75      1862.5731      899606.01      900755.71      901926.51      2434.6718      1567.9508     -2722.3937      5857.0605      9829.7907      15686.851      131948.06      40.407099      40.407099      80.814199          16004 
    267000   2784.3342      907043.08      1869.8375      903694.2       908275.28      909159.75      1515.3323      1090.8667      2383.4262      5759.5349      9914.6686      15674.203      131734.99      40.385338      40.385338      80.770676          16004 
    268000   2804.7894      906307.03      1877.1334      905902.74      906771.23      906247.14      3243.1653     -1527.1488      523.72348      5801.8473      9919.0975      15720.945      131764.37      40.388339      40.388339      80.776678          16004 
    269000   2772.2916      903597.11      1884.412       902141.54      903535.47      905114.32     -505.26787      2957.2376     -767.64773      5734.624       9853.2663      15587.89       131818.28      40.393847      40.393847      80.787694          16004 
    270000   2832.4488      901229.36      1891.6744      903526.69      899779.04      900382.36     -1631.3726     -1719.7401     -235.33986      5859.0622      9754.8911      15613.953      131916.39      40.403866      40.403866      80.807731          16004 
    271000   2758.3076      899463.52      1898.9287      900237.33      897415.11      900738.11     -1129.8518     -5465.983       1182.8392      5705.6975      9788.0599      15493.757      131907.56      40.402964      40.402964      80.805929          16004 
    272000   2796.6616      900837.85      1906.1852      901979.76      899891.12      900642.68     -1409.465      -6135.5125      74.585855      5785.0347      9843.877       15628.912      131906.98      40.402905      40.402905      80.80581           16004 
    273000   2753.3695      897807.85      1913.449       898163.48      896243.42      899016.66      601.20038     -1781.5696     -1018.3283      5695.4828      9799.0775      15494.56       131932.02      40.405461      40.405461      80.810923          16004 
    274000   2791.1367      893030.43      1920.7089      892988.04      893905.52      892197.73      272.62547      1692.2091     -3367.1872      5773.606       9731.4628      15505.069      132083.45      40.420914      40.420914      80.841829          16004 
    275000   2796.5851      891569.04      1927.9822      891571.84      891941.09      891194.19     -174.09523      1875.7993     -1061.2169      5784.8765      9717.5318      15502.408      132123.69      40.425019      40.425019      80.850038          16004 
    276000   2800.7109      898126.66      1935.2518      900276.75      896987.15      897116.07     -1744.2579      2512.14        3700.0681      5793.4109      9819.8446      15613.255      131998.06      40.412202      40.412202      80.824404          16004 
    277000   2765.8013      901921.26      1942.5085      902763.95      904687.04      898312.79      5390.2325      2032.567      -173.74994      5721.1985      9796.2941      15517.493      131863.43      40.398458      40.398458      80.796916          16004 
    278000   2797.9593      899862.38      1949.7714      900213.35      899368.12      900005.67      3923.5942      648.76848     -222.94898      5787.719       9835.2584      15622.977      131949.55      40.407251      40.407251      80.814502          16004 
    279000   2791.6998      898924.33      1957.0472      900795.93      897165.54      898811.51     -1031.7277     -4287.9689      746.2732       5774.7709      9758.9768      15533.748      131965.84      40.408914      40.408914      80.817828          16004 
    280000   2833.9745      891663         1964.3125      892724.36      892798.4       889466.23      1910.1769     -2642.0955      4280.4726      5862.2182      9670.1814      15532.4        132165.82      40.429315      40.429315      80.85863           16004 
    281000   2791.5368      893816.31      1971.5751      893628.26      894114.59      893706.08     -1541.8689     -3720.4277     -317.904        5774.4337      9682.0989      15456.533      132095.32      40.422126      40.422126      80.844251          16004 
    282000   2814.0345      901324.59      1978.8444      902396.53      901380.68      900196.55      361.4196       329.43657      3645.2404      5820.9714      9858.8659      15679.837      131916.08      40.403834      40.403834      80.807668          16004 
    283000   2816.7934      903103.52      1986.1079      903270.73      903713.85      902325.97     -6460.9914      3020.7109     -209.05463      5826.6782      9806.94        15633.618      131848.33      40.396916      40.396916      80.793832          16004 
    284000   2832.1072      901474.94      1993.3688      903017.72      900986.44      900420.67     -480.26899     -1296.3761     -1445.6506      5858.3557      9808.471       15666.827      131918.36      40.404067      40.404067      80.808134          16004 
    285000   2802.6342      900579.66      2000.6226      901096.53      898648.23      901994.2      -2487.1231     -2015.2933     -348.24039      5797.3893      9779.5077      15576.897      131879.05      40.400054      40.400054      80.800107          16004 
    286000   2816.0315      901733.22      2007.8801      901740.33      901537.28      901922.04      917.50437     -292.1728       905.58743      5825.1023      9846.7228      15671.825      131864.85      40.398603      40.398603      80.797206          16004 
[...]
   3930000   3549.4868      902661.52      7126.9689      937943.52      940508.04      829532.99     -56237.991      9147.9583     -47226.302      7342.2912      19079.138      26421.429      114836.39      38.88221       38.88221       75.958723          16004 
   3931000   3523.3329      894784.83      7134.6203      927885.73      933196.94      823271.82     -50330.586      6742.3097     -46443.332      7288.1907      19006.689      26294.88       115058.98      38.907316      38.907316      76.00777           16004 
   3932000   3540.1284      905426.18      7142.2665      941614.29      945837.31      828826.94     -51831.102      9326.2988     -43594.697      7322.933       19125.598      26448.531      114784.88      38.876395      38.876395      75.947365          16004 
   3933000   3521.3891      897123.38      7149.9147      931291.12      934924.8       825154.21     -53499.389      7012.2722     -46302.259      7284.1698      19044.481      26328.65       114997.6       38.900396      38.900396      75.994251          16004 
   3934000   3523.6794      897384.17      7157.5576      932977.08      935573.58      823601.85     -52169.249      8044.7043     -46859.25       7288.9073      19042.438      26331.346      114992.11      38.899777      38.899777      75.993042          16004 
   3935000   3536.4504      906778.85      7165.2019      943468.5       945721.52      831146.54     -50881.217      3854.0675     -47766.202      7315.3249      19125.981      26441.306      114795.31      38.877572      38.877572      75.949664          16004 
   3936000   3543.051       897738.01      7172.8532      931800.16      937742.81      823671.05     -51462.335      6007.6528     -44880.377      7328.9784      19023.249      26352.228      114950.44      38.895077      38.895077      75.983861          16004 
   3937000   3549.3908      896973.86      7180.4967      930108.16      937178.12      823635.3      -54311.934      5979.8215     -47111.939      7342.0927      18993.605      26335.698      114978.76      38.898271      38.898271      75.9901            16004 
   3938000   3555.0777      901746.52      7188.1494      937450.53      938916.99      828872.03     -55227.419      6308.9402     -47232.053      7353.8564      19049.923      26403.78       114856.48      38.884477      38.884477      75.963153          16004 
   3939000   3550.1403      898472.36      7195.8063      933751.11      934636.49      827029.47     -54255.013      8063.7844     -48455.692      7343.6431      19037.095      26380.738      114897.4       38.889094      38.889094      75.972172          16004 
   3940000   3544.8691      897378.14      7203.4561      931574.18      938416.25      822143.99     -52667.223      5325.6938     -47391.995      7332.7394      19031.401      26364.141      114926.48      38.892374      38.892374      75.978581          16004 
   3941000   3551.9152      904293.96      7211.1089      941523.68      942491.69      828866.5      -51688.651      7930.6565     -46505.153      7347.3145      19094.535      26441.849      114787.5       38.876691      38.876691      75.947943          16004 
   3942000   3557.9376      893615.36      7218.7595      929732.9       934742.17      816371        -50412.199      5217.6626     -47908.801      7359.7722      18957.602      26317.375      115009.01      38.901682      38.901682      75.996763          16004 
   3943000   3533.1232      898480.38      7226.4227      934446.06      938805.85      822189.23     -55588.692      6888.2228     -46903.901      7308.4424      19056.502      26364.944      114923.74      38.892066      38.892066      75.977978          16004 
   3944000   3549.4384      903723.27      7234.0822      942385.39      941044.16      827740.27     -54976.518      7893.1742     -44944.927      7342.1913      19074.226      26416.418      114830.93      38.881593      38.881593      75.957519          16004 
   3945000   3556.4564      899214.64      7241.7359      934790.14      939218.62      823635.15     -54920.452      10506.028     -46978.695      7356.7082      19017.616      26374.325      114906         38.890065      38.890065      75.974069          16004 
   3946000   3552.8007      898996.12      7249.4001      934266.73      937722.24      824999.4      -51341.213      6023.3711     -45042.203      7349.1462      19004.202      26353.348      114942.86      38.894222      38.894222      75.982191          16004 
   3947000   3532.4757      905415.08      7257.0528      941046.27      946462.36      828736.6      -56393.615      9433.6991     -47641.914      7307.1029      19139.042      26446.145      114778.37      38.87566       38.87566       75.945928          16004 
   3948000   3531.5831      891649.38      7264.7081      927023.92      929765.16      818159.05     -53828.947      4191.3812     -47470.062      7305.2565      18964.814      26270.071      115089.7       38.910778      38.910778      76.014534          16004 
   3949000   3535.1103      899402.11      7272.3731      933793.73      936711.9       827700.72     -50845.537      4773.2607     -46003.456      7312.5528      19034.407      26346.96       114952.35      38.895293      38.895293      75.984282          16004 
   3950000   3531.526       902190.18      7280.0276      938350.69      936456.76      831763.08     -53961.714      3968.3018     -48501.27       7305.1385      19065.345      26370.483      114910.24      38.890543      38.890543      75.975003          16004 
   3951000   3522.6513      899933.51      7287.6819      936183.49      938705.15      824911.88     -50255.082      7157.0258     -43206.194      7286.7808      19074.439      26361.22       114926.55      38.892383      38.892383      75.978597          16004 
   3952000   3539.6772      898046.88      7295.338       932661.16      940161.93      821317.57     -54073.514      10483.416     -46283.812      7321.9996      19039.296      26361.295      114925.66      38.892283      38.892283      75.978402          16004 
   3953000   3513.7308      898285.33      7302.9868      934206.26      935380.5       825269.24     -53298.006      3979.9799     -47592.754      7268.3282      19049.613      26317.941      115002.38      38.900934      38.900934      75.995303          16004 
   3954000   3533.4382      906789.97      7310.6334      939174.38      947986.61      833208.93     -53737.65       8097.5805     -44071.083      7309.094       19149.558      26458.652      114751.81      38.872662      38.872662      75.940071          16004 
   3955000   3550.6286      901108.55      7318.2784      939447.44      938671.34      825206.88     -51765.819      5846.8638     -46856.865      7344.6531      19048.171      26392.824      114866.4       38.885597      38.885597      75.96534           16004 
   3956000   3538.7841      897657.41      7325.9218      933711.04      937811.1       821450.09     -55635.21       3095.6982     -46278.612      7320.1522      19053.965      26374.118      114897.83      38.889143      38.889143      75.972267          16004 
   3957000   3538.2787      900020.63      7333.5702      938123.69      938194.72      823743.48     -51169.264      8666.952      -46043.179      7319.1068      19063.604      26382.71       114881.77      38.887331      38.887331      75.968727          16004 
   3958000   3525.6627      903384.11      7341.2158      936782.8       942636.8       830732.74     -53836.24       3776.0831     -46426.428      7293.0099      19117.588      26410.597      114831.73      38.881683      38.881683      75.957695          16004 
   3959000   3570.0255      900287.7       7348.8615      934496.99      941394.68      824971.42     -55026.081      9893.7819     -44434.848      7384.7766      18977.219      26361.996      114916.71      38.891273      38.891273      75.976429          16004 
   3960000   3513.2793      900931.5       7356.5081      937257.81      938526.59      827010.09     -49984.82       6363.277      -45573.466      7267.3943      19082.801      26350.195      114936.81      38.89354       38.89354       75.980857          16004 
   3961000   3543.5357      910293.73      7364.1393      945547.22      948603.26      836730.7      -51032.448      4375.9069     -47997.567      7329.9811      19163.518      26493.499      114681.24      38.864691      38.864691      75.9245            16004 
   3962000   3539.279       895032.77      7371.7562      929794.6       934709.57      820594.13     -52125.088      4504.2549     -47420.397      7321.1759      18999.77       26320.946      114987.36      38.899241      38.899241      75.991996          16004 
   3963000   3557.8795      897788.23      7379.3734      934035.49      937439.69      821889.5      -51291.393      8296.2847     -49962.005      7359.652       19006.057      26365.709      114907.45      38.890228      38.890228      75.974387          16004 
   3964000   3563.9438      903509.85      7387.0198      937644.81      943440.53      829444.22     -49678.292      2851.8109     -47146.305      7372.1964      19047.194      26419.39       114811.65      38.879417      38.879417      75.953268          16004 
   3965000   3518.805       897593.17      7394.6633      930219.84      936276.27      826283.41     -47527.852      8264.8033     -42756.057      7278.8243      19032.47       26311.295      115004.18      38.901137      38.901137      75.9957            16004 
   3966000   3535.4367      901676.63      7402.3076      937397.3       939726.58      827906.01     -49896.329      2850.8408     -46441.848      7313.2279      19082.891      26396.119      114852.81      38.884063      38.884063      75.962343          16004 
   3967000   3526.3509      901361.46      7409.9511      934353.06      939136.37      830594.94     -50288.577      7982.0033     -46044.168      7294.4335      19097.476      26391.91       114859.95      38.884868      38.884868      75.963917          16004 
   3968000   3531.2398      896808.19      7417.5901      932037.95      934960.81      823425.82     -52460.95       4289.3493     -44733.907      7304.5464      19032.314      26336.86       114957.56      38.895881      38.895881      75.985431          16004 
   3969000   3529.8865      893480.65      7425.2285      930004.43      933158.47      817279.05     -52290.768      8830.526      -46948.099      7301.7472      18996.924      26298.671      115024.86      38.903469      38.903469      76.000255          16004 
   3970000   3519.066       902288.93      7432.8719      939183.71      939243.76      828439.32     -49532.599      7673.1941     -44825.568      7279.3643      19120.599      26399.963      114843.49      38.883011      38.883011      75.96029           16004 
   3971000   3531.9944      903535.75      7440.512       938466.22      944728.38      827412.66     -55277.34       8571.152      -47546.924      7306.1074      19103.482      26409.59       114826.16      38.881055      38.881055      75.956468          16004 
   3972000   3519.0161      895318.67      7448.1585      930053.35      934355.77      821546.9      -52092.27       8983.9566     -42629.907      7279.2611      19013.097      26292.358      115034.8       38.90459       38.90459       76.002444          16004 
   3973000   3527.9316      896177.57      7455.8033      933367.2       936977.81      818187.69     -53450.434      7559.5241     -48599.71       7297.7034      19048.511      26346.214      114938.4       38.893719      38.893719      75.981207          16004 
   3974000   3551.4271      907580.57      7463.4424      943013.85      945902.52      833825.35     -54153.32       7943.2989     -45540.143      7346.3049      19122.206      26468.51       114720.81      38.86916       38.86916       75.93323           16004 
   3975000   3558.4779      895145.78      7471.0817      928377.83      933187.65      823871.85     -54933.978      8747.015      -47254.902      7360.8898      18958.532      26319.422      114985.31      38.89901       38.89901       75.991544          16004 
   3976000   3534.8813      898079.12      7478.7232      934578.94      939495.71      820162.7      -54578.805      6012.1362     -47174.437      7312.0791      19047.751      26359.83       114911.86      38.890725      38.890725      75.975359          16004 
   3977000   3537.4011      900210.35      7486.3673      936387.24      939838.66      824405.14     -53178.768      6163.9737     -42947.358      7317.2913      19071.859      26389.15       114857.42      38.884582      38.884582      75.963359          16004 
   3978000   3520.4483      889681.75      7494.0117      923647.59      930848.51      814549.14     -52572.994      7641.0333     -45425.954      7282.2237      18935.571      26217.795      115163.57      38.919101      38.919101      76.030792          16004 
   3979000   3574.8923      903845.56      7501.6566      942521.74      946529.86      822485.07     -56279.124      8369.7943     -46452.528      7394.8439      19064.447      26459.291      114730.79      38.870287      38.870287      75.935433          16004 
   3980000   3535.6659      899434.98      7509.2972      931571.69      941857.92      824875.34     -51072.282      7243.309      -43135.153      7313.702       19034.205      26347.907      114928.34      38.892585      38.892585      75.978992          16004 
   3981000   3474.3783      903037.17      7516.9459      936690.34      942320.68      830100.5      -50365.584      8050.6794     -46736.544      7186.9255      19175.178      26362.103      114902.39      38.889657      38.889657      75.973273          16004 
   3982000   3556.5311      906396.44      7524.5846      939015.94      946227.2       833946.18     -50129.091      8078.9413     -44300.474      7356.8628      19125.417      26482.28       114688.07      38.865463      38.865463      75.926008          16004 
   3983000   3509.6908      898825.99      7532.2325      933970.63      938079.91      824427.42     -51185.764      3334.7004     -47849.079      7259.9713      19080.86       26340.832      114937.07      38.893569      38.893569      75.980915          16004 
   3984000   3552.7131      895842.45      7539.8869      933135.57      934968.11      819423.69     -51889.777      5308.4393     -46097.389      7348.965       18975.718      26324.683      114965.6       38.896787      38.896787      75.987201          16004 
   3985000   3550.0542      899551.45      7547.5346      934726.01      938313.45      825614.89     -50839.457      5879.6952     -46280.501      7343.465       19027.6        26371.065      114881.69      38.887322      38.887322      75.968711          16004 
   3986000   3506.5341      902272.54      7555.1894      938555.08      944268.38      823994.16     -54055.956      9350.2498     -44231.357      7253.4416      19153.077      26406.518      114818.02      38.880136      38.880136      75.954672          16004 
   3987000   3530.8272      888016.94      7562.8432      924650.67      928375.46      811024.69     -50654.619      5994.9388     -43335.71       7303.6929      18907.379      26211.072      115164.97      38.919259      38.919259      76.031101          16004 
   3988000   3527.7139      903835.27      7570.4905      942757.48      941994.03      826754.28     -51864.932      4973.743      -45058.737      7297.2528      19121.25       26418.503      114794.14      38.877441      38.877441      75.949408          16004 
   3989000   3519.5821      903213.54      7578.1429      941643.68      942956.44      825040.49     -53784.828      5712.9719     -49241.64       7280.4319      19129.96       26410.392      114807.71      38.878972      38.878972      75.952399          16004 
   3990000   3523.2439      896685.28      7585.7926      933935.63      936559.27      819560.96     -51367.892      4429.9063     -42990.146      7288.0066      19038.027      26326.033      114957.42      38.895865      38.895865      75.9854            16004 
   3991000   3514.1639      897052.11      7593.4381      933424.01      936479.62      821252.72     -50693.31       3385.491      -47530.437      7269.224       19044.17       26313.394      114979.7       38.898378      38.898378      75.990309          16004 
   3992000   3562.48        912215.4       7601.092       948641.91      949761.73      838242.55     -53984.245      6788.4136     -47423.042      7369.1683      19160.568      26529.736      114594.86      38.85493       38.85493       75.905431          16004 
   3993000   3549.0835      893139.15      7608.7458      926806.9       932975.56      819634.99     -53846.941      7943.4068     -46658.916      7341.457       18963.892      26305.349      114992.7       38.899844      38.899844      75.993173          16004 
   3994000   3536.3887      897436.51      7616.4024      934147.23      938662.91      819499.39     -55493.037      8291.9196     -43065.056      7315.1973      19021.585      26336.782      114935.39      38.89338       38.89338       75.980545          16004 
   3995000   3558.0643      901543.15      7624.0486      939267.32      940017.59      825344.54     -53425.114      7396.7476     -47857.99       7360.0342      19032.24       26392.274      114836.64      38.882237      38.882237      75.958778          16004 
   3996000   3525.4966      896276.28      7631.6954      930666.57      935356.98      822805.28     -50420.105      4362.3055     -45718.36       7292.6663      19015.306      26307.972      114986.47      38.899141      38.899141      75.991799          16004 
   3997000   3519.2788      902850.73      7639.35        941989.89      939032.13      827530.17     -50748.03       7406.4726     -46358.01       7279.8045      19097.299      26377.104      114861.33      38.885025      38.885025      75.964223          16004 
   3998000   3546.2937      902794.55      7646.9964      938557.91      944035.14      825790.59     -54749.408      8028.0892     -45664.408      7335.6861      19064.709      26400.396      114819.83      38.880341      38.880341      75.955073          16004 
   3999000   3562.3719      896710.05      7654.6483      933127.39      937572.12      819430.64     -54474.372      5732.5059     -46850.077      7368.9448      18974.143      26343.088      114921.54      38.891818      38.891818      75.977494          16004 
   4000000   3534.6343      899410.26      7662.3054      934090.75      937060.18      827079.87     -55620.459      6762.8178     -45234.617      7311.5682      19046.903      26358.471      114891.06      38.888378      38.888378      75.970774          16004 
Loop time of 7662.31 on 8 procs for 1000000 steps with 16004 atoms

Performance: 5.638 ns/day, 4.257 hours/ns, 130.509 timesteps/s
64.7% CPU use with 1 MPI tasks x 8 OpenMP threads

MPI task timing breakdown:
Section |  min time  |  avg time  |  max time  |%varavg| %total
---------------------------------------------------------------
Pair    | 7163.8     | 7163.8     | 7163.8     |   0.0 | 93.49
Neigh   | 14.948     | 14.948     | 14.948     |   0.0 |  0.20
Comm    | 107.71     | 107.71     | 107.71     |   0.0 |  1.41
Output  | 3.6973     | 3.6973     | 3.6973     |   0.0 |  0.05
Modify  | 326.66     | 326.66     | 326.66     |   0.0 |  4.26
Other   |            | 45.51      |            |       |  0.59

Nlocal:          16004 ave       16004 max       16004 min
Histogram: 1 0 0 0 0 0 0 0 0 0
Nghost:          15766 ave       15766 max       15766 min
Histogram: 1 0 0 0 0 0 0 0 0 0
Neighs:              0 ave           0 max           0 min
Histogram: 1 0 0 0 0 0 0 0 0 0
FullNghs:   2.0086e+06 ave  2.0086e+06 max  2.0086e+06 min
Histogram: 1 0 0 0 0 0 0 0 0 0

Total # of neighbors = 2008602
Ave neighs/atom = 125.50625
Neighbor list builds = 28117
Dangerous builds = 0
Total wall time: 8:37:20
