
atom_style atomic
units metal
boundary p p p
#atom_modify sort 0 0.0
newton on

read_data data.lammps
Reading data file ...
  orthogonal box = (0 0 0) to (43.790145 43.790145 87.58029)
  1 by 1 by 1 MPI processor grid
  reading atoms ...
  16004 atoms
  read_data CPU = 0.056 seconds
# replicate 10 10 20

### interactions

pair_style flare
pair_coeff * * lmp.flare
Reading potential file lmp.flare with DATE: Thu

# compute unc all flare/std/atom L_inv_lmp.flare sparse_desc_lmp.flare
# compute MaxUnc all reduce max c_unc

mass 1 12.011000
mass 2 28.085000

thermo_style custom step temp press cpu pxx pyy pzz pxy pxz pyz ke pe etotal vol lx ly lz atoms    #c_MaxUnc
thermo 1000
timestep 0.0005
restart 100000 restart_*.dat

#################### Equilibrate at P and T_es ##############################
velocity all create $T 41928459 rot yes dist gaussian
velocity all create 3600 41928459 rot yes dist gaussian
fix mom all momentum 1000 linear 1 1 1 angular

fix 1 all npt temp $T $T $(100.0*dt) iso $P $P $(1000.0*dt)
fix 1 all npt temp 3600 $T $(100.0*dt) iso $P $P $(1000.0*dt)
fix 1 all npt temp 3600 3600 $(100.0*dt) iso $P $P $(1000.0*dt)
fix 1 all npt temp 3600 3600 0.050000000000000002776 iso $P $P $(1000.0*dt)
fix 1 all npt temp 3600 3600 0.050000000000000002776 iso 100000 $P $(1000.0*dt)
fix 1 all npt temp 3600 3600 0.050000000000000002776 iso 100000 100000 $(1000.0*dt)
fix 1 all npt temp 3600 3600 0.050000000000000002776 iso 100000 100000 0.5
dump 1 all custom 1000 1equil.bin id type x y z vx vy vz
run   10000 # report performance
Neighbor list info ...
  update every 1 steps, delay 10 steps, check yes
  max neighbors/atom: 2000, page size: 100000
  master list distance cutoff = 6
  ghost atom cutoff = 6
  binsize = 6, bins = 8 8 15
  1 neighbor lists, perpetual/occasional/extra = 1 0 0
  (1) pair flare/kk, perpetual
      attributes: full, newton on, kokkos_device
      pair build: full/bin/kk/device
      stencil: full/bin/3d
      bin: kk/device
Per MPI rank memory allocation (min/avg/max) = 15.9 | 15.9 | 15.9 Mbytes
   Step          Temp          Press           CPU            Pxx            Pyy            Pzz            Pxy            Pxz            Pyz           KinEng         PotEng         TotEng         Volume           Lx             Ly             Lz          Atoms   
         0   3600           67557.906      0              67141.204      67594.979      67937.535     -846.34414      34.024028     -558.57611      7446.7804     -4000.2205      3446.5599      167941.93      43.790145      43.790145      87.58029           16004 
      1000   3519.3585      98795.769      6.3516533      99126.121      98496.457      98764.73      -1318.4983      864.22117      1732.3862      7279.9693      4229.9504      11509.92       170991.22      44.053586      44.053586      88.107173          16004 
      2000   3615.2054      95769.896      12.630477      97181.401      95224.363      94903.924      2441.1153     -2010.204      -883.27423      7478.2336      4593.7926      12072.026      171585.64      44.104576      44.104576      88.209151          16004 
      3000   3571.2202      100907.03      18.906505      100398.36      101504.91      100817.83     -839.49674      747.43408     -1237.3994      7387.2478      4289.7298      11676.978      171016.93      44.055795      44.055795      88.111589          16004 
      4000   3604.8811      99312.293      25.185653      99061.73       98286.471      100588.68     -395.41241      2045.5049     -2376.3469      7456.8772      4390.1472      11847.024      171269.38      44.077462      44.077462      88.154923          16004 
      5000   3627.8963      99230.62       31.458944      99599.298      98520.816      99571.747      767.38037      193.94722     -3892.4271      7504.4853      4382.2198      11886.705      171280.53      44.078418      44.078418      88.156837          16004 
      6000   3572.9016      102690.88      37.736855      103353.23      102441.43      102277.96      29.852291      239.59323     -1401.6113      7390.7259      4315.8096      11706.536      170961.07      44.050997      44.050997      88.101994          16004 
      7000   3637.1328      102481.94      44.013255      102245.87      101667.48      103532.47      1727.7199      1487.4988     -631.01396      7523.5914      4445.8597      11969.451      171154.67      44.067619      44.067619      88.135238          16004 
      8000   3588.9161      103734.16      50.290108      102657.02      103661.36      104884.1       419.83857     -29.153941      1551.9444      7423.8528      4380.6288      11804.482      170941.44      44.049311      44.049311      88.098622          16004 
      9000   3628.7701      101803.46      56.594863      100198.45      102911.77      102300.16      422.98147      2449.7787      1160.9592      7506.2928      4316.7315      11823.024      170957.53      44.050693      44.050693      88.101386          16004 
     10000   3627.8427      99409.294      62.887321      99484.906      100104.84      98638.136      1442.7914     -392.23741     -1523.2116      7504.3743      4422.0139      11926.388      171328.02      44.082492      44.082492      88.164983          16004 
Loop time of 62.8873 on 8 procs for 10000 steps with 16004 atoms

Performance: 6.869 ns/day, 3.494 hours/ns, 159.015 timesteps/s
60.9% CPU use with 1 MPI tasks x 8 OpenMP threads

MPI task timing breakdown:
Section |  min time  |  avg time  |  max time  |%varavg| %total
---------------------------------------------------------------
Pair    | 59.817     | 59.817     | 59.817     |   0.0 | 95.12
Neigh   | 0.0946     | 0.0946     | 0.0946     |   0.0 |  0.15
Comm    | 0.37848    | 0.37848    | 0.37848    |   0.0 |  0.60
Output  | 0.013787   | 0.013787   | 0.013787   |   0.0 |  0.02
Modify  | 2.3284     | 2.3284     | 2.3284     |   0.0 |  3.70
Other   |            | 0.2546     |            |       |  0.40

Nlocal:          16004 ave       16004 max       16004 min
Histogram: 1 0 0 0 0 0 0 0 0 0
Nghost:          13599 ave       13599 max       13599 min
Histogram: 1 0 0 0 0 0 0 0 0 0
Neighs:              0 ave           0 max           0 min
Histogram: 1 0 0 0 0 0 0 0 0 0
FullNghs:  1.37299e+06 ave 1.37299e+06 max 1.37299e+06 min
Histogram: 1 0 0 0 0 0 0 0 0 0

Total # of neighbors = 1372988
Ave neighs/atom = 85.790302
Neighbor list builds = 305
Dangerous builds = 0
run  990000
Per MPI rank memory allocation (min/avg/max) = 15.97 | 15.97 | 15.97 Mbytes
   Step          Temp          Press           CPU            Pxx            Pyy            Pzz            Pxy            Pxz            Pyz           KinEng         PotEng         TotEng         Volume           Lx             Ly             Lz          Atoms   
     10000   3627.8427      99409.294      0              99484.906      100104.84      98638.136      1442.7914     -392.23741     -1523.2116      7504.3743      4422.0139      11926.388      171328.02      44.082492      44.082492      88.164983          16004 
     11000   3589.6148      101406.83      6.2914376      102405.41      101716.05      100099.03      1687.2519      1893.2517      1278.623       7425.298       4308.7186      11734.017      171106.18      44.063457      44.063457      88.126914          16004 
     12000   3581.644       98962.574      12.578379      99226.83       98884.487      98776.404     -330.42999     -933.1943       425.74407      7408.8101      4415.6398      11824.45       171259.34      44.076601      44.076601      88.153201          16004 
     13000   3615.6476      100024.71      18.866364      101781.64      98286.471      100006.01      1326.5088      823.98032      577.1778       7479.1483      4401.6916      11880.84       171238.14      44.074781      44.074781      88.149563          16004 
     14000   3575.2612      100713.66      25.154498      98704.377      101209.87      102226.72      206.29587     -1930.8521     -993.19481      7395.6069      4329.7175      11725.324      171049.3       44.058574      44.058574      88.117148          16004 
     15000   3612.674       98506.306      31.440511      99770.605      97313.942      98434.371     -958.82619      985.27771     -1615.1313      7472.9971      4386.7959      11859.793      171316.56      44.081509      44.081509      88.163018          16004 
     16000   3568.4196      101698.76      37.730329      102658.93      100121.2       102316.14     -2799.9126     -1361.2283      1460.3505      7381.4548      4350.4107      11731.865      170965.13      44.051346      44.051346      88.102692          16004 
     17000   3600.723       96712.178      44.015115      95990.957      96432.876      97712.7        333.1577      -488.41294     -563.73482      7448.2759      4403.255       11851.531      171462.48      44.094021      44.094021      88.188041          16004 
     18000   3566.9462      96766.182      50.303658      97511.84       94861.856      97924.849      149.70069     -2795.2093     -145.60955      7378.4068      4298.1219      11676.529      171335.65      44.083146      44.083146      88.166291          16004 
     19000   3590.0436      93564.825      56.591172      94833.915      91650.74       94209.821      1395.6746      1524.4776     -373.19846      7426.1849      4329.7493      11755.934      171589.96      44.104946      44.104946      88.209892          16004 
     20000   3672.4969      97837.294      62.878271      99485.495      96958.297      97068.09       1191.2208      567.90724      353.5175       7596.7439      4300.9836      11897.728      171414.18      44.08988       44.08988       88.179759          16004 
     21000   3571.997       100235.72      69.164269      100128         100464.78      100114.39     -2343.7267     -110.17746     -768.72308      7388.8547      4357.3793      11746.234      171067.12      44.060104      44.060104      88.120208          16004 
     22000   3611.119       98938.821      75.451295      99806.336      98191.786      98818.341     -406.55108      304.92496     -104.53828      7469.7805      4394.8947      11864.675      171344.05      44.083866      44.083866      88.167733          16004 
     23000   3576.8741      102788.13      81.74074       104742.88      101127.57      102493.93      1216.5988      1066.3388     -630.81116      7398.9432      4382.9885      11781.932      170908.11      44.046448      44.046448      88.092896          16004 
     24000   3617.9618      101966.03      88.029875      101445.57      101832.4       102620.13     -1029.6075     -44.999849     -925.43334      7483.9353      4358.135       11842.07       170985.11      44.053062      44.053062      88.106124          16004 
     25000   3607.2639      103708.31      94.316787      103571.43      103514.3       104039.2       766.4376      -2381.5686      267.48188      7461.806       4398.693       11860.499      170989.91      44.053474      44.053474      88.106948          16004 
     26000   3593.3145      104448.63      100.60558      103990.38      104466.86      104888.64      1741.2909      1327.7067     -81.405312      7432.951       4364.8366      11797.788      170791.23      44.036405      44.036405      88.07281           16004 
     27000   3605.5366      102179.63      106.89413      101753.92      102252.97      102532        -600.17956      2010.7507      3518.8641      7458.2332      4328.8307      11787.064      170994.34      44.053854      44.053854      88.107709          16004 
     28000   3581.9111      101563.37      113.18218      100868.84      102727.5       101093.76      896.16704      938.81674     -1130.0643      7409.3625      4369.5481      11778.911      171019.9       44.05605       44.05605       88.112099          16004 
     29000   3638.1173      99591.449      119.70742      99074.539      100499.91      99199.902     -297.42349      990.71249     -357.28274      7525.628       4321.7076      11847.336      171212.81      44.072608      44.072608      88.145217          16004 
     30000   3636.6981      98585.174      125.9955       97590.413      98315.557      99849.552     -1563.5612      1344.0419      1252.864       7522.6923      4393.5767      11916.269      171355.51      44.084849      44.084849      88.169699          16004 
     31000   3582.6117      99146.84       132.28434      99728.339      98739.524      98972.657      272.22497      1248.1482      113.14678      7410.8118      4230.1579      11640.97       171094.38      44.062444      44.062444      88.124889          16004 
     32000   3593.5981      100765.22      138.57199      102010.42      99829.68       100455.55     -1457.6618     -326.19062      735.31775      7433.5377      4331.3421      11764.88       171068.49      44.060222      44.060222      88.120444          16004 
     33000   3631.5044      96059.049      144.85843      95682.632      97201.576      95292.94       1461.0595     -929.81478      18.883526      7511.9488      4401.4487      11913.398      171591.01      44.105036      44.105036      88.210072          16004 
     34000   3600.2039      100914.38      151.14572      101051.74      100704.03      100987.37     -3771.3509      1444.0599      437.89702      7447.2022      4291.5218      11738.724      171075.77      44.060846      44.060846      88.121693          16004 
     35000   3639.2486      100758.88      157.43181      100072.65      101169.51      101034.47      196.72629     -243.27908     -255.62472      7527.9681      4467.7466      11995.715      171195.12      44.07109       44.07109       88.14218           16004 
     36000   3582.7937      103555.11      163.7211       104110.97      102931.81      103622.54      851.15475     -187.98987      372.52234      7411.1883      4361.8022      11772.991      170788.83      44.036199      44.036199      88.072398          16004 
     37000   3585.3915      99495.279      170.00839      98987.58       99095.416      100402.84     -429.38923      3181.6677      391.15215      7416.5619      4488.3621      11904.924      171287.06      44.078978      44.078978      88.157956          16004 
     38000   3588.4044      103393.4       176.29561      102534.97      103543.36      104101.87     -1782.8799      1441.8429     -1479.6381      7422.7942      4366.5945      11789.389      170922.3       44.047667      44.047667      88.095334          16004 
     39000   3612.7947      101030.29      182.58528      101011.47      101488.97      100590.42      70.010684     -1494.2044      763.37623      7473.2468      4380.6019      11853.849      171169.91      44.068927      44.068927      88.137855          16004 
     40000   3581.0213      99637.028      188.87099      99143.979      100053.78      99713.321      354.85811      740.2741       49.352801      7407.5221      4306.0412      11713.563      171114.6       44.06418       44.06418       88.12836           16004 
     41000   3613.1994      101970.5       195.15197      102282.75      100264.5       103364.25     -1269.7821     -1217.2123     -875.46185      7474.084       4336.7819      11810.866      171003.21      44.054617      44.054617      88.109233          16004 
     42000   3650.9567      99931.852      201.43735      99521.313      99656.102      100618.14     -250.54831     -850.37624     -1004.0548      7552.1869      4403.3469      11955.534      171161.68      44.068221      44.068221      88.136442          16004 
     43000   3583.874       99205.595      207.72062      99491.668      98001.252      100123.86     -198.00775      539.93905      3213.3813      7413.4229      4367.4836      11780.906      171214.29      44.072735      44.072735      88.14547           16004 
     44000   3593.236       95669.199      214.00621      95470.73       94897.541      96639.327      481.24673     -137.48866     -1639.7444      7432.7886      4317.2981      11750.087      171426.12      44.090904      44.090904      88.181807          16004 
     45000   3606.3472      97349.023      220.29096      97923.128      97165.124      96958.817     -1403.4225     -1480.6774      128.74168      7459.9099      4386.5876      11846.498      171438.74      44.091985      44.091985      88.183971          16004 
     46000   3580.9367      99383.234      226.57493      100833.36      98987.978      98328.365     -3256.2583      1036.889      -510.4148       7407.3469      4379.0182      11786.365      171207.06      44.072115      44.072115      88.14423           16004 
     47000   3567.3587      99046.92       232.85997      99460.71       99384.76       98295.291      608.13101     -983.06088      303.86785      7379.2603      4388.215       11767.475      171168.12      44.068774      44.068774      88.137547          16004 
     48000   3586.9654      99390.332      239.14916      99360.321      100897.2       97913.477     -1396.7942      1297.0595      103.90526      7419.8177      4408.381       11828.199      171175.72      44.069426      44.069426      88.138851          16004 
     49000   3656.8701      101102.85      245.43401      100353.2       103180.54      99774.803     -1145.512      -372.10044      454.4361       7564.4189      4361.3619      11925.781      171170.96      44.069017      44.069017      88.138034          16004 
     50000   3586.6452      100986.15      251.71836      101454.18      101250.69      100253.59      504.58107     -2198.3562     -107.28014      7419.1554      4362.3547      11781.51       171096.07      44.062589      44.062589      88.125179          16004 
     51000   3585.8268      98417.714      258.004        97811.358      98503.974      98937.811      2020.6807     -556.42037     -2088.9459      7417.4623      4374.326       11791.788      171245.19      44.075386      44.075386      88.150773          16004 
     52000   3575.3889      98112.299      264.29048      98907.236      98797.661      96632          1125.7729     -330.04666     -1248.7276      7395.871       4417.8857      11813.757      171418.6       44.090259      44.090259      88.180518          16004 
     53000   3580.8528      94454.728      270.57734      96085.437      94199.659      93079.088      1450.0005      2201.4346      502.70312      7407.1734      4326.9538      11734.127      171484.68      44.095923      44.095923      88.191847          16004 
     54000   3572.6128      97846.119      276.86103      97763.316      98405.951      97369.089      1327.9985      2141.207       428.6198       7390.1286      4301.0327      11691.161      171294.04      44.079577      44.079577      88.159155          16004 
     55000   3594.9788      99837.114      283.1486       100457.35      99592.38       99461.608      1684.2945      490.43628      643.43432      7436.3938      4407.3811      11843.775      171242.06      44.075118      44.075118      88.150235          16004 
     56000   3574.6286      100313.25      290.44111      99590.183      100230.79      101118.77      1531.1874      122.70579      122.87505      7394.2984      4450.771       11845.069      171223.06      44.073487      44.073487      88.146975          16004 
     57000   3641.2708      99110.587      296.73008      98379.859      100406.37      98545.536     -89.753869      1957.7629     -170.51747      7532.1511      4340.8468      11872.998      171275.27      44.077967      44.077967      88.155933          16004 
     58000   3606.0759      107117.82      303.01631      106926.52      106472.68      107954.26      365.73612     -587.36353      6.2931976      7459.3488      4409.0425      11868.391      170641.61      44.023542      44.023542      88.047084          16004 
     59000   3620.0408      102991.84      309.30118      101827.24      103612.04      103536.23      1394.4438      313.4789      -1473.8212      7488.2357      4459.9241      11948.16       170995.73      44.053974      44.053974      88.107948          16004 
     60000   3603.8398      101743.17      315.58484      100186.37      102120.77      102922.38      201.92923      544.76436     -1923.8752      7454.7233      4371.1945      11825.918      171064.66      44.059893      44.059893      88.119785          16004 
     61000   3577.3573      100890.93      321.8716       100782.63      102362.82      99527.338      526.68995      972.53287     -41.170488      7399.9427      4235.9688      11635.912      170953.46      44.050343      44.050343      88.100686          16004 
     62000   3594.8162      99154.585      328.15569      97979.887      100979.06      98504.81       554.80522     -316.21629      372.50711      7436.0575      4408.7314      11844.789      171125.27      44.065095      44.065095      88.130191          16004 
     63000   3592.3899      97444.875      334.4403       96935.197      97283.103      98116.326      291.10903      283.64203      1202.5256      7431.0385      4438.5008      11869.539      171476.49      44.095222      44.095222      88.190443          16004 
     64000   3629.1415      97616.54       340.7259       97906.654      98559.568      96383.398      2310.8181      63.359146     -1579.4558      7507.061       4241.439       11748.5        171355.97      44.084889      44.084889      88.169777          16004 
     65000   3616.561       99066.466      347.00994      100406.23      97247.616      99545.552     -2979.6857     -928.70088      385.58755      7481.0376      4297.1608      11778.198      171298.41      44.079952      44.079952      88.159905          16004 
     66000   3581.5166      100403.02      353.29551      100968.87      99770.85       100469.34      1205.1796     -243.12928     -1227.3251      7408.5466      4348.7712      11757.318      171139.42      44.066311      44.066311      88.132621          16004 
     67000   3587.1834      96722.628      359.57942      97596.181      95147.524      97424.179     -2439.8734     -832.42716     -1260.5677      7420.2686      4425.257       11845.526      171450.03      44.092953      44.092953      88.185906          16004 
     68000   3597.705       98719.154      365.86745      97733.962      98151.331      100272.17     -3436.1021      2435.2632      1012.801       7442.033       4302.3852      11744.418      171217.83      44.073039      44.073039      88.146077          16004 
     69000   3579.2179      96838.09       372.15264      98785.061      96043.495      95685.713     -2161.4767     -1004.0945     -1702.6894      7403.7915      4450.1073      11853.899      171465.76      44.094302      44.094302      88.188604          16004 
     70000   3599.5088      97360.497      378.43684      97969.737      96434.287      97677.466      355.88679     -879.13696     -1321.6195      7445.7643      4350.0864      11795.851      171333.24      44.082939      44.082939      88.165878          16004 
     71000   3576.4941      96933.743      384.72144      95791.886      98085.332      96924.011     -1222.0062     -872.28344     -1032.174       7398.1573      4284.6744      11682.832      171388.51      44.087679      44.087679      88.175359          16004 
     72000   3552.6984      96416.823      391.00615      96504.17       97649.011      95097.289      779.031       -489.58939      56.293685      7348.9346      4436.1306      11785.065      171371.5       44.08622       44.08622       88.17244           16004 
     73000   3551.4691      96506.953      397.29167      95425.434      96794.603      97300.822      672.73711      115.16752      1915.4803      7346.3917      4381.744       11728.136      171410.12      44.089532      44.089532      88.179064          16004 
     74000   3588.1598      101166.87      403.57878      101531.14      100274.6       101694.87      286.371        901.18937     -501.93371      7422.2883      4350.2295      11772.518      171051.1       44.058728      44.058728      88.117457          16004 
     75000   3591.8698      99206.496      409.86185      99636.025      98632.389      99351.074     -253.06117     -1722.7621      1539.5042      7429.9627      4467.5925      11897.555      171302.02      44.080261      44.080261      88.160522          16004 
     76000   3640.514       99582.864      416.14646      98818.518      100114.69      99815.387      2240.4281      1609.7402     -1600.9608      7530.5856      4444.4383      11975.024      171249.51      44.075757      44.075757      88.151514          16004 
     77000   3595.6945      102238.63      422.43183      101967.35      102062.58      102685.95      244.12341      407.84084     -1553.7909      7437.8742      4391.6999      11829.574      171044.65      44.058175      44.058175      88.116349          16004 
     78000   3598.0135      103915.79      428.71643      105031.79      104134.31      102581.26      37.168269     -770.07504     -663.91544      7442.6712      4349.5366      11792.208      170838.85      44.040497      44.040497      88.080995          16004 
     79000   3605.4213      101669.94      435.00075      102430.04      101522.47      101057.31     -1035.0296     -1561.8686      753.7762       7457.9945      4446.3597      11904.354      171125.23      44.065092      44.065092      88.130185          16004 
     80000   3613.9107      100039.98      441.28688      99887.518      99841.502      100390.93      1580.3278      1015.5312      10.094175      7475.5553      4396.9791      11872.534      171145.6       44.06684       44.06684       88.13368           16004 
     81000   3589.8324      101165.44      447.57105      101874.58      100458.93      101162.8       1396.3539     -1743.9554      85.92041       7425.7481      4403.9101      11829.658      171073.74      44.060672      44.060672      88.121344          16004 
     82000   3600.4349      100727.54      453.85677      101145.58      100160.14      100876.91      709.54257     -108.88148     -1960.7084      7447.68        4295.1724      11742.852      171139.61      44.066326      44.066326      88.132652          16004 
     83000   3549.0261      97702.96       460.1407       99807.499      97714.678      95586.704      82.443623     -325.59659      39.503242      7341.3384      4421.3388      11762.677      171332.83      44.082904      44.082904      88.165808          16004 
     84000   3572.2043      97526.286      466.42592      97777.953      96195.367      98605.539      1629.153       32.055782     -819.217        7389.2836      4390.9862      11780.27       171372.5       44.086306      44.086306      88.172613          16004 
     85000   3613.7973      96831.719      472.71098      97194.74       97465.328      95835.09       297.96384      233.99234      1668.3312      7475.3207      4317.7679      11793.089      171398.82      44.088563      44.088563      88.177125          16004 
     86000   3608.2038      98804.327      478.99446      99431.083      98609.004      98372.894     -1733.2324      129.64553      450.42502      7463.7503      4347.0186      11810.769      171278.03      44.078204      44.078204      88.156408          16004 
     87000   3638.0042      99147.41       485.27993      99862.932      98581.866      98997.432      1230.2354      32.295938      1075.3637      7525.3939      4371.1145      11896.508      171290.79      44.079298      44.079298      88.158597          16004 
     88000   3562.3893      102533.37      494.68186      101210.37      102890.57      103499.17     -1566.8301     -757.91414      1285.444       7368.9807      4378.2169      11747.198      170968.72      44.051654      44.051654      88.103309          16004 
     89000   3600.5447      101146.53      500.98302      101059.27      101927.3       100453.01      95.980775     -2361.421       406.64091      7447.9071      4305.1211      11753.028      171025.23      44.056507      44.056507      88.113015          16004 
     90000   3603.3447      95692.692      507.27162      96877.86       95422.771      94777.445     -978.51196     -49.251463     -2683.8669      7453.6991      4428.5741      11882.273      171620.47      44.107559      44.107559      88.215119          16004 
     91000   3572.98        97813.074      513.55584      97856.615      97631.325      97951.282      1645.585       576.89488      2302.2258      7390.8882      4376.7536      11767.642      171298.44      44.079955      44.079955      88.15991           16004 
     92000   3595.1551      100097.35      519.84263      101017.91      99666.478      99607.659     -582.51085      974.62513      705.9155       7436.7584      4396.6229      11833.381      171196.38      44.071198      44.071198      88.142397          16004 
     93000   3604.9566      98919.727      526.13289      99570.495      98386.863      98801.824      1485.3263     -219.93448      923.60611      7457.0333      4395.9515      11852.985      171209.68      44.072339      44.072339      88.144679          16004 
     94000   3594.1124      100006.28      532.41925      99340.295      100429.2       100249.36      1240.1061      287.14442      157.44226      7434.6016      4327.1975      11761.799      171097.58      44.062719      44.062719      88.125438          16004 
     95000   3609.0137      98895.972      538.70684      98625.332      98103.723      99958.861     -1516.6363     -1084.0841      2064.4843      7465.4257      4344.3206      11809.746      171216.31      44.072909      44.072909      88.145817          16004 
     96000   3591.1343      100715.22      544.99204      101594.68      99422.734      101128.25     -649.16457     -656.96702      671.9598       7428.4411      4408.0132      11836.454      171158.73      44.067967      44.067967      88.135935          16004 
     97000   3571.239       99002.819      551.27778      99339.814      99697.152      97971.491      1004.9769     -857.87898      990.05435      7387.2868      4402.194       11789.481      171251.05      44.07589       44.07589       88.151779          16004 
     98000   3609.7748      98647.483      557.56897      96430.199      99520.855      99991.394     -983.44843      148.55217     -117.75934      7466.9999      4334.112       11801.112      171322.23      44.081995      44.081995      88.16399           16004 
     99000   3600.2492      100966.69      563.8544       99863.671      101618.72      101417.68     -2033.0067      921.41944      723.09224      7447.2959      4375.5725      11822.868      171152.69      44.067449      44.067449      88.134898          16004 
    100000   3602.8315      103663.27      570.14634      103086.87      104244.79      103658.16      1001.9326      72.624842     -1405.0186      7452.6376      4372.8992      11825.537      170831.27      44.039846      44.039846      88.079692          16004 
    101000   3614.4874      102820.29      576.42747      104464.41      102341.37      101655.1      -140.36494     -187.18738      1051.986       7476.7483      4470.1289      11946.877      171030.86      44.056991      44.056991      88.113982          16004 
    102000   3629.8673      102784.35      582.70989      102634.77      102763.06      102955.22     -1235.392      -804.1486       124.82645      7508.5624      4316.4622      11825.025      170957.28      44.050671      44.050671      88.101343          16004 
    103000   3606.6148      99228.561      588.99325      97439.055      99442.826      100803.8       1513.8642      782.31173     -879.52702      7460.4634      4394.6698      11855.133      171233.45      44.074379      44.074379      88.148758          16004 
    104000   3592.4137      99948.504      595.27817      100631.22      98857.242      100357.05     -1362.3434      1686.2232      409.25919      7431.0877      4308.9335      11740.021      171157.1       44.067828      44.067828      88.135655          16004 
    105000   3583.0462      98294.431      601.56197      97317.934      98136.552      99428.808      713.63667     -592.13188      1925.3493      7411.7105      4320.679       11732.39       171266.89      44.077248      44.077248      88.154497          16004 
    106000   3627.1901      97854.939      607.84681      98063.328      97616.116      97885.372      1096.5509      1308.1869      496.38352      7503.0244      4327.4323      11830.457      171416.06      44.090041      44.090041      88.180082          16004 
    107000   3571.361       97987.959      614.13036      98840.337      97434.857      97688.683     -315.83211     -1275.0092      2161.3004      7387.5392      4430.0163      11817.556      171347.93      44.084199      44.084199      88.168398          16004 
    108000   3605.7502      94546.334      620.41305      95092.725      94021.073      94525.204     -288.62002      267.18381     -1265.3026      7458.675       4321.6645      11780.339      171598.85      44.105708      44.105708      88.211416          16004 
    109000   3606.873       95830.753      626.69676      95801.782      96268.42       95422.057     -1924.3124     -126.92984     -2148.2348      7460.9975      4275.8413      11736.839      171522.37      44.099154      44.099154      88.198309          16004 
    110000   3607.2152      97378.658      632.97948      97444.97       97480.526      97210.479     -1236.4841      635.49929     -2325.3325      7461.7053      4399.4559      11861.161      171534.06      44.100156      44.100156      88.200311          16004 
    111000   3549.6615      100895.59      639.26437      100865.31      102657.22      99164.24      -1546.4459     -227.38298      1672.8789      7342.6527      4344.9127      11687.565      170985.42      44.053088      44.053088      88.106176          16004 
    112000   3612.8199      102092.52      645.55016      101929.63      101581.87      102766.04     -880.2958       1010.2313      1412.8802      7473.299       4377.4251      11850.724      171074.46      44.060734      44.060734      88.121468          16004 
    113000   3612.4204      104617.19      651.83256      104679.9       103891.34      105280.34      118.87489      1059.0538     -642.23578      7472.4727      4472.287       11944.76       170866.62      44.042884      44.042884      88.085767          16004 
    114000   3614.5713      106187.2       658.11739      106633.02      105109.5       106819.08      316.91355     -174.237        864.45421      7476.9218      4406.6653      11883.587      170780.08      44.035447      44.035447      88.070893          16004 
    115000   3635.3163      104116.59      664.40027      105341.49      104101.43      102906.84     -70.368234      589.22373      2679.0266      7519.8339      4395.9704      11915.804      170913.26      44.04689       44.04689       88.093781          16004 
    116000   3643.9425      100982.55      670.68509      100579.16      100582.78      101785.72      131.33703     -1502.6428      2424.4439      7537.6776      4414.6318      11952.309      171145.71      44.06685       44.06685       88.1337            16004 
    117000   3640.4215      101866.02      676.9674       102638.36      100754.68      102205.02      578.43107     -1408.404      -1382.4328      7530.3942      4391.1363      11921.531      171192.05      44.070827      44.070827      88.141654          16004 
    118000   3612.5567      102464.2       683.25077      101612.6       102914.7       102865.29      869.67609      590.23065     -129.54054      7472.7546      4278.288       11751.043      170882.04      44.044208      44.044208      88.088416          16004 
    119000   3607.4466      99505.621      692.91507      98926.813      98097.604      101492.44      369.62348      708.61145      331.20995      7462.184       4419.203       11881.387      171257.49      44.076441      44.076441      88.152883          16004 
    120000   3591.7058      98128.472      699.21021      98914.355      97586.166      97884.894     -2403.8979      412.05717     -1290.8167      7429.6234      4292.3259      11721.949      171307.93      44.080768      44.080768      88.161537          16004 
    121000   3628.5822      96803.662      705.49566      96825.88       96260.785      97324.322     -3941.5858      1600.5073      964.78597      7505.9041      4339.325       11845.229      171356.06      44.084896      44.084896      88.169792          16004 
    122000   3611.8745      100544.3       711.78016      101953.51      99850.154      99829.225     -692.39898     -1471.2633      320.68765      7471.3433      4300.5507      11771.894      171035.48      44.057387      44.057387      88.114774          16004 
    123000   3616.639       98348.142      718.06435      98710.84       98127.306      98206.278     -1438.8291     -689.82153      222.91158      7481.199       4374.8473      11856.046      171234.14      44.074438      44.074438      88.148877          16004 
    124000   3626.0896      99075.449      724.34764      99084.63       98309.242      99832.474      2753.3467     -2106.8984     -1004.0255      7500.748       4430.0785      11930.827      171329.3       44.082601      44.082601      88.165202          16004 
    125000   3611.8869      103784.25      730.63424      105366.14      103730.64      102255.97      669.84682     -578.27716     -1166.0981      7471.369       4372.2691      11843.638      170792.94      44.036552      44.036552      88.073105          16004 
    126000   3624.7128      103024.18      736.91672      104570.57      101259.69      103242.29      1874.5212     -1203.719       2049.4643      7497.9         4466.3932      11964.293      170953.82      44.050375      44.050375      88.10075           16004 
    127000   3605.0418      102247.6       743.20118      101377.96      104059.9       101304.95      2594.4229      1357.1287     -1990.1825      7457.2097      4440.0892      11897.299      170973.67      44.052079      44.052079      88.104159          16004 
    128000   3624.287       102553.29      749.48608      103491.94      101224.64      102943.3      -132.1191      -100.34773     -2424.2303      7497.0192      4389.7862      11886.805      171091.16      44.062168      44.062168      88.124335          16004 
    129000   3572.1949      102368.34      755.77248      100840.87      102115.47      104148.68      220.46867      971.95626      483.29655      7389.2642      4316.3803      11705.644      170881.37      44.04415       44.04415       88.088301          16004 
    130000   3597.7989      100196.58      762.05488      100234.74      99687.775      100667.24     -36.865186      384.34717     -791.68584      7442.2272      4398.4994      11840.727      171252.77      44.076037      44.076037      88.152073          16004 
    131000   3565.796       102086.54      768.34107      102389.09      102602.32      101268.2       679.12796     -1330.3892      2093.3781      7376.0277      4364.7323      11740.76       170981.89      44.052786      44.052786      88.105571          16004 
    132000   3560.3738      98116.563      774.62524      97784.778      98432.197      98132.713      306.93052      1090.8728      652.94593      7364.8115      4431.085       11795.897      171264.15      44.077013      44.077013      88.154027          16004 
    133000   3574.0952      95717.562      780.9095       96710.798      95806.405      94635.484     -1707.5212      282.91102     -1557.1387      7393.1949      4389.9279      11783.123      171495.31      44.096835      44.096835      88.19367           16004 
    134000   3585.9377      95441.04       787.19393      94614.933      96479.599      95228.588      964.77867      856.62714     -641.70814      7417.6918      4369.0906      11786.782      171458.09      44.093644      44.093644      88.187289          16004 
    135000   3576.1114      99429.885      793.47913      99115.891      99496.855      99676.91       363.2331       1002.5503     -1630.8396      7397.3655      4434.6153      11831.981      171100.19      44.062943      44.062943      88.125886          16004 
    136000   3589.7986      101892.77      799.76387      102074.06      102325.2       101279.05     -2527.5636     -1019.6288      2993.3898      7425.6783      4410.5249      11836.203      171051.57      44.058769      44.058769      88.117537          16004 
    137000   3627.3893      101683.84      806.04709      102195.83      100675.86      102179.83     -1267.9233     -251.93272      704.32276      7503.4365      4429.3752      11932.812      171182.9       44.070042      44.070042      88.140084          16004 
    138000   3613.1165      103110.4       812.33222      103376.83      103165.28      102789.11     -443.95512     -949.03163     -59.319596      7473.9126      4432.6603      11906.573      171014.98      44.055627      44.055627      88.111254          16004 
    139000   3570.781       104783.21      818.61829      105468.45      104574.44      104306.74      209.21833     -1070.652       363.8729       7386.3393      4393.615       11779.954      170796.59      44.036866      44.036866      88.073731          16004 
    140000   3604.4366      97907.073      824.90201      97948.558      97885.997      97886.663     -717.6251       1644.0974     -1650.6707      7455.9577      4423.7735      11879.731      171384.72      44.087354      44.087354      88.174708          16004 
    141000   3541.2753      98824.539      831.1883       100021.59      98618.672      97833.354     -1946.6443     -302.76466      281.0205       7325.3055      4384.3583      11709.664      171201.43      44.071632      44.071632      88.143264          16004 
    142000   3611.0959      98467.322      837.47306      97342.646      98796.286      99263.034      2996.7374     -1206.8631     -311.50883      7469.7328      4319.6939      11789.427      171224.42      44.073605      44.073605      88.147209          16004 
    143000   3561.4848      96032.645      843.75868      95553.799      97449.109      95095.026      278.59818     -317.60531     -291.87399      7367.1098      4312.6396      11679.749      171412.68      44.089751      44.089751      88.179503          16004 
    144000   3590.5099      93746.695      850.04551      93300.191      94838.155      93101.74      -997.53577     -1287.0201     -1667.7997      7427.1497      4366.1649      11793.315      171580.07      44.104098      44.104098      88.208197          16004 
    145000   3584.6894      96159.869      856.32973      95464.461      97015.743      95999.402      2817.0468      482.46171     -172.5401       7415.1096      4319.8187      11734.928      171353.38      44.084667      44.084667      88.169333          16004 
    146000   3628.0669      99126.045      862.6135       99880.526      98849.542      98648.068      125.33004     -172.80558     -1453.5224      7504.8381      4282.1104      11786.948      171210.55      44.072414      44.072414      88.144828          16004 
    147000   3609.5248      99154.304      868.89807      100107.81      100023.16      97331.939      2191.2628     -2326.1471      52.034897      7466.483       4473.7784      11940.261      171414.4       44.089899      44.089899      88.179798          16004 
    148000   3613.7779      101952.97      875.18157      101285.21      101840.65      102733.06      994.14663      2674.6545      707.50769      7475.2806      4340.5335      11815.814      170990.79      44.053549      44.053549      88.107099          16004 
    149000   3599.7441      101121.71      881.46631      100607.48      100433.38      102324.28      1251.901      -1781.6767     -669.60884      7446.2509      4448.6759      11894.927      171181.1       44.069887      44.069887      88.139775          16004 
    150000   3595.2137      101772.11      887.75016      102601.45      103186.76      99528.122      624.02088      357.044        3048.2589      7436.8797      4383.563       11820.443      171049.26      44.05857       44.05857       88.11714           16004 
    151000   3611.4107      101815.61      894.03591      101745.36      102241.63      101459.83     -17.896996     -451.70174      263.75212      7470.384       4306.3067      11776.691      171047.67      44.058434      44.058434      88.116868          16004 
    152000   3592.9472      98287.887      900.32119      99568.793      97046.742      98248.127      3011.7885      900.73207     -1223.3128      7432.1913      4379.0739      11811.265      171281.23      44.078478      44.078478      88.156957          16004 
    153000   3627.7229      99443.856      906.59183      100260.03      99845.446      98226.09       1098.1492     -1224.924       730.79812      7504.1266      4403.6002      11907.727      171347.09      44.084127      44.084127      88.168254          16004 
    154000   3601.3031      100302.28      913.67109      99231.627      100259.12      101416.09      610.28812     -984.54703      781.36723      7449.4759      4288.8594      11738.335      171127.03      44.065247      44.065247      88.130493          16004 
    155000   3583.8818      99101.167      919.95733      99624.482      99729.579      97949.44       17.783465     -1361.0837      1575.023       7413.4392      4439.0232      11852.462      171289.82      44.079215      44.079215      88.158431          16004 
    156000   3602.9439      100384.71      926.24007      100215.19      99962.416      100976.51     -1533.222      -224.42646     -1457.3618      7452.8699      4434.6078      11887.478      171256.7       44.076374      44.076374      88.152747          16004 
    157000   3590.5487      101738.36      932.52515      101730.22      100920.82      102564.03     -1779.2362      2378.9012     -840.07128      7427.23        4363.5286      11790.759      171033.85      44.057247      44.057247      88.114495          16004 
    158000   3642.8389      105180.2       938.81078      105373.99      105520.47      104646.13      535.48883     -409.37474     -1821.9932      7535.3948      4328.1651      11863.56       170746.44      44.032555      44.032555      88.06511           16004 
    159000   3613.5858      104211.07      945.09747      103586.25      104485.63      104561.33     -1660.3637      1493.0651     -98.02567       7474.8833      4390.857       11865.74       170841.44      44.04072       44.04072       88.08144           16004 
    160000   3595.4846      103910.38      951.38633      104448.98      103193.7       104088.45     -1319.1129      3.4488672      1149.0721      7437.44        4408.0156      11845.456      170817.52      44.038664      44.038664      88.077329          16004 
    161000   3630.9778      99592.104      957.67622      99803.924      99199.258      99773.129     -504.25793     -1857.6497     -3530.4248      7510.8595      4425.4638      11936.323      171205.2       44.071955      44.071955      88.14391           16004 
    162000   3542.7409      101310.93      963.96135      100929.37      100257.72      102745.7      -44.38542      -530.4104       751.85389      7328.3371      4478.4364      11806.773      171129.28      44.06544       44.06544       88.130879          16004 
    163000   3616.2088      98930.998      970.25058      98126.22       99369.739      99297.034      1261.9753      1584.1025      1090.0244      7480.3091      4324.2941      11804.603      171192.94      44.070903      44.070903      88.141806          16004 
    164000   3619.9751      98786.778      976.53834      100042.46      98656.661      97661.211     -2441.9395      421.71114     -1405.7948      7488.0999      4568.0464      12056.146      171470.67      44.094722      44.094722      88.189445          16004 
    165000   3589.3274      98175.155      982.82593      98540.802      98018.303      97966.361      2000.6556     -1086.8255     -825.43851      7424.7035      4288.8285      11713.532      171201.99      44.07168       44.07168       88.14336           16004 
    166000   3621.1449      96300.518      989.11487      96946.875      95926.742      96027.936     -73.022915     -2614.5247     -1835.6772      7490.5196      4392.1922      11882.712      171478.92      44.09543       44.09543       88.19086           16004 
    167000   3579.5037      100220.27      995.40506      100356.91      100540.54      99763.354      262.14574      766.38603      919.78224      7404.3828      4407.8756      11812.258      171102.66      44.063155      44.063155      88.12631           16004 
    168000   3586.1221      101945.76      1001.6975      101128.54      101241.34      103467.4       99.172262      755.11007      800.28462      7418.0732      4460.9351      11879.008      171091.43      44.062191      44.062191      88.124381          16004 
    169000   3580.7781      99698.46       1007.9891      99905.691      100015.36      99174.329     -202.99805      620.01684      35.426274      7407.0189      4401.0074      11808.026      171111.85      44.063943      44.063943      88.127887          16004 
    170000   3620.3486      99147.425      1014.2808      99539.727      98801.811      99100.737      1728.9027      532.28211     -2220.2942      7488.8724      4462.9214      11951.794      171362.18      44.085421      44.085421      88.170843          16004 
    171000   3602.5178      102363.17      1020.5704      102005.04      103519.09      101565.37      681.324        560.31939     -303.896        7451.9886      4350.5429      11802.532      170910.79      44.046678      44.046678      88.093356          16004 
    172000   3624.9894      103209.07      1026.8625      101920.58      104245.17      103461.44     -889.94407      359.96924      2443.6052      7498.4721      4315.7572      11814.229      170908.93      44.046518      44.046518      88.093037          16004 
    173000   3595.6111      101831.7       1033.1538      101623.8       101855.32      102015.99      1525.1545     -1256.8665     -833.73637      7437.7017      4470.9302      11908.632      171103.65      44.06324       44.06324       88.12648           16004 
    174000   3609.2286      99519.707      1039.4442      99812.083      98207.79       100539.25      743.939       -2617.5251     -414.25283      7465.8702      4393.5947      11859.465      171199.48      44.071464      44.071464      88.142928          16004 
    175000   3573.435       101409.13      1045.7352      101331.81      101763.04      101132.54     -215.45774      546.42938      563.46597      7391.8293      4393.7707      11785.6        171009.13      44.055125      44.055125      88.110249          16004 
    176000   3600.1221      101850.51      1052.0273      101251.65      102389.76      101910.1       710.36336      214.58824      423.70547      7447.033       4444.3148      11891.348      171091.48      44.062195      44.062195      88.12439           16004 
    177000   3582.0632      107190.88      1058.3159      108270.26      105611.43      107690.95      871.60861      446.48759      1033.7859      7409.6771      4381.4062      11791.083      170583.67      44.018558      44.018558      88.037117          16004 
    178000   3639.6834      101541.3       1064.6056      100623.66      102317.38      101682.86     -1743.3373      1201.1698      1364.1833      7528.8675      4367.3584      11896.226      171107.64      44.063582      44.063582      88.127164          16004 
    179000   3601.3516      101898.12      1070.8976      101762.66      101651.06      102280.64     -1534.6245      458.092       -1323.1854      7449.5762      4297.5241      11747.1        170921.34      44.047585      44.047585      88.095169          16004 
    180000   3593.2324      101241.81      1077.1865      102038.65      100566.12      101120.66      1853.5976      457.14368     -283.0121       7432.7813      4401.2947      11834.076      171085.42      44.061675      44.061675      88.12335           16004 
    181000   3613.7371      100684.53      1083.4751      101694.79      99889.244      100469.55     -301.68772      763.14292     -1360.475       7475.1962      4491.4015      11966.598      171213.98      44.072709      44.072709      88.145418          16004 
    182000   3633.2151      100635.82      1089.7616      101127.96      100724.17      100055.32     -2069.3813      2119.7865     -374.45726      7515.4874      4310.3036      11825.791      171131.95      44.065669      44.065669      88.131337          16004 
    183000   3614.2489      102708.94      1096.0512      101889.31      103868.54      102368.99     -1990.3943      489.17732      1924.1261      7476.2549      4387.9133      11864.168      171014.46      44.055582      44.055582      88.111164          16004 
    184000   3616.7028      98609.509      1102.3405      98313.95       98203.599      99310.979      444.79014     -1530.1094     -410.74021      7481.3309      4392.2674      11873.598      171304.21      44.080449      44.080449      88.160899          16004 
    185000   3593.55        97357.835      1108.6263      97943.839      98984.414      95145.252      1883.5665      1488.7242     -46.745034      7433.4381      4438.765       11872.203      171356.11      44.0849        44.0849        88.169801          16004 
    186000   3595.1018      95582.25       1114.9156      96790.647      95385.698      94570.405     -1810.2029     -2326.9068      1369.7949      7436.6482      4339.1198      11775.768      171441.45      44.092218      44.092218      88.184436          16004 
    187000   3614.2032      99675.68       1121.203       100087.23      99374.201      99565.61      -1583.4941     -622.30323      2359.1721      7476.1604      4388.147       11864.307      171215.93      44.072876      44.072876      88.145752          16004 
    188000   3622.6843      101324.89      1127.4942      100645.14      102242.44      101087.1       77.522998     -888.57796      272.24102      7493.7041      4330.0599      11823.764      170932.07      44.048507      44.048507      88.097013          16004 
    189000   3616.6256      103075.73      1133.7854      102948.86      102868.46      103409.88     -1166.6608      667.10735      1121.9221      7481.1712      4467.5042      11948.675      170968.86      44.051666      44.051666      88.103333          16004 
    190000   3597.9209      98291.376      1140.0728      97596.054      97884.308      99393.766     -806.27533      460.73616      1220.1959      7442.4795      4366.4589      11808.938      171267.01      44.077258      44.077258      88.154516          16004 
    191000   3584.9566      98139.859      1148.5123      96360.389      98630.277      99428.911      2406.9521      1342.3669     -1147.4869      7415.6622      4304.2835      11719.946      171177.55      44.069582      44.069582      88.139164          16004 
    192000   3582.5383      99479.153      1154.8158      98289.562      100527.99      99619.907      2182.0549      1041.2044      1460.1396      7410.6599      4338.245       11748.905      171200.29      44.071534      44.071534      88.143069          16004 
    193000   3617.8191      96388.39       1161.1056      96299.323      95884.781      96981.066      910.23264     -727.42251      2297.0375      7483.64        4382.4598      11866.1        171429.43      44.091188      44.091188      88.182375          16004 
    194000   3594.0361      98622.075      1167.3932      98052.136      98952.267      98861.82       946.43967     -1912.8874     -43.070112      7434.4438      4345.2403      11779.684      171220.23      44.073245      44.073245      88.14649           16004 
    195000   3592.6255      100526.69      1173.6833      100195.19      101069.21      100315.67     -555.23158      682.2662      -364.01706      7431.5259      4346.9132      11778.439      171148.76      44.067112      44.067112      88.134223          16004 
    196000   3595.7495      104146.72      1179.9701      104300.36      103765.24      104374.55     -2109.193       1677.1928     -942.17165      7437.988       4425.5914      11863.579      170924         44.047813      44.047813      88.095625          16004 
    197000   3601.5345      105105.48      1186.2556      106280.59      105884.82      103151.03     -2790.0486     -1098.0004     -1349.6858      7449.9545      4334.0472      11784.002      170739.79      44.031983      44.031983      88.063967          16004 
    198000   3632.2843      103973.5       1192.5447      104307.7       103716.18      103896.61      557.03091     -658.97656      3149.6603      7513.562       4398.6633      11912.225      170945.68      44.049675      44.049675      88.09935           16004 
    199000   3632.0031      106829.72      1198.8318      105745.16      107519.12      107224.88      519.27144     -1811.1477     -1423.1589      7512.9803      4386.1884      11899.169      170607.96      44.020648      44.020648      88.041296          16004 
    200000   3620.2269      101374.38      1205.1327      101194.13      101307.77      101621.24     -41.558        -420.21096      17.97564       7488.6207      4428.9646      11917.585      171035.18      44.057362      44.057362      88.114723          16004 
    201000   3593.7052      99961.24       1211.4161      99904.655      100105.81      99873.249      755.17534     -2443.7879      918.11124      7433.7592      4387.7574      11821.517      171226.9       44.073817      44.073817      88.147634          16004 
    202000   3599.85        100740.61      1217.7052      101596.85      101410.92      99214.072      831.77075     -716.11257     -325.9629       7446.47        4299.4115      11745.882      171105.41      44.063391      44.063391      88.126781          16004 
    203000   3597.338       97006.066      1223.9946      97497.857      96041.611      97478.731     -51.242185      355.4451       713.76179      7441.274       4366.331       11807.605      171505.01      44.097666      44.097666      88.195332          16004 
    204000   3563.8874      98294.758      1230.2837      97742.068      97978.139      99164.068     -1032.2891     -1785.9765     -1503.1783      7372.0797      4273.6692      11645.749      171176.05      44.069454      44.069454      88.138907          16004 
    205000   3639.0869      97381.58       1236.58        97319.972      97783.005      97041.762     -614.84018     -939.48021     -1614.6862      7527.6336      4220.7399      11748.373      171249.14      44.075725      44.075725      88.151451          16004 
    206000   3594.3958      99516.917      1242.8677      98651.947      99909.919      99988.886      40.288637     -514.26548     -1161.46        7435.1878      4256.5152      11691.703      171227.84      44.073898      44.073898      88.147796          16004 
    207000   3573.8491      94321.936      1249.1611      94498.163      93840.194      94627.451     -795.19583      99.8346       -2603.5724      7392.6859      4437.9405      11830.626      171617.98      44.107347      44.107347      88.214694          16004 
    208000   3568.8081      98919.648      1255.448       99398.6        98783.748      98576.596     -29.823686     -73.311498     -463.83968      7382.2583      4351.6798      11733.938      171258.36      44.076516      44.076516      88.153032          16004 
    209000   3613.258       97366.059      1261.7325      97545.681      97482.898      97069.599     -917.62239     -1536.238      -1095.4543      7474.2053      4376.7701      11850.975      171444.99      44.092522      44.092522      88.185043          16004 
    210000   3578.3473      95805.09       1268.0201      93967.774      95120.104      98327.39       209.26901     -2246.7357     -385.16561      7401.9907      4386.7902      11788.781      171530.4       44.099842      44.099842      88.199684          16004 
    211000   3547.8883      96603.308      1274.3071      95583.205      97850.689      96376.03      -95.761534      410.07336      451.55001      7338.9847      4393.6991      11732.684      171387.4       44.087584      44.087584      88.175167          16004 
    212000   3602.2246      98193.309      1280.5932      97784.078      97378.416      99417.435     -218.70868      868.26795     -1216.3403      7451.3821      4342.6208      11794.003      171373.9       44.086426      44.086426      88.172852          16004 
    213000   3543.9437      99606.203      1286.8805      100417.96      98328.086      100072.57      403.91084     -403.09599     -1523.5381      7330.8252      4482.4154      11813.241      171137.2       44.066119      44.066119      88.132239          16004 
    214000   3607.509       101285.09      1293.1661      101544.94      100970.28      101340.06      211.70336      348.77918     -820.16458      7462.3132      4376.9547      11839.268      171089.14      44.061994      44.061994      88.123989          16004 
    215000   3591.6429      102394.32      1299.4525      103192         101276.98      102713.98      767.01465      608.40247      753.8261       7429.4932      4332.6889      11762.182      171054.25      44.058999      44.058999      88.117998          16004 
    216000   3594.7476      96589.923      1305.7389      95567.373      97476.272      96726.125      2615.508       3.5322826     -1790.8946      7435.9156      4297.4715      11733.387      171288.61      44.079111      44.079111      88.158223          16004 
    217000   3596.9474      98313.836      1312.0257      97688.207      98411.642      98841.658      1232.4251     -1366.0113      1059.9619      7440.4659      4476.4806      11916.947      171415.9       44.090028      44.090028      88.180055          16004 
    218000   3592.5195      98692.477      1318.3149      98875.164      98101.133      99101.133      606.01043     -1612.2238      402.93555      7431.3066      4302.8985      11734.205      171250.22      44.075818      44.075818      88.151635          16004 
    219000   3603.538       96475.882      1324.6022      97440.526      97039.137      94947.982      2591.9895     -541.92809      1489.8554      7454.0988      4408.2902      11862.389      171483.22      44.095799      44.095799      88.191597          16004 
    220000   3571.868       96565.585      1330.887       98124.16       94949.826      96622.769     -62.646802      190.5075       359.05285      7388.588       4372.7148      11761.303      171418.26      44.090229      44.090229      88.180459          16004 
    221000   3596.8003      97321.929      1337.1764      97453.916      96949.551      97562.32      -1422.0463      2943.1418      1317.5958      7440.1616      4289.1083      11729.27       171343.18      44.083791      44.083791      88.167583          16004 
    222000   3654.8494      100106.03      1343.4628      99457.564      100642.98      100217.54     -1253.1693     -542.04322     -1320.1898      7560.2392      4419.4659      11979.705      171314.56      44.081337      44.081337      88.162674          16004 
    223000   3615.2943      100798.33      1349.7496      100837.65      100342.27      101215.07      791.25044      1861.3759     -1970.3431      7478.4174      4351.8956      11830.313      171172.98      44.069191      44.069191      88.138381          16004 
    224000   3567.1861      103763.05      1356.0359      103484.19      105892.86      101912.09      1342.0327      369.30969      931.06631      7378.9033      4407.4639      11786.367      170898.4       44.045614      44.045614      88.091228          16004 
    225000   3604.0715      104809.51      1362.3186      105334.4       105063.34      104030.81      174.95302     -979.58384     -226.94671      7455.2025      4371.8882      11827.091      170759.36      44.033665      44.033665      88.067331          16004 
    226000   3628.2186      103279.44      1368.6027      101065.61      103673.86      105098.85      2056.2415     -2424.3241     -247.30328      7505.1519      4446.7707      11951.923      170956.86      44.050635      44.050635      88.101271          16004 
    227000   3634.03        105081.55      1374.8859      104858.41      105654.36      104731.87     -1602.3531     -2179.2431      405.1496       7517.1731      4361.7686      11878.942      170876.32      44.043717      44.043717      88.087434          16004 
    228000   3630.9098      102611.08      1381.1689      102796.5       102358.29      102678.45      973.20141     -822.85279      398.28326      7510.7188      4245.6267      11756.345      170910.42      44.046646      44.046646      88.093293          16004 
    229000   3601.7321      99587.076      1387.4544      98915.559      101954.61      97891.059     -845.89088      332.50861     -2526.4741      7450.3632      4442.9472      11893.31       171313.81      44.081273      44.081273      88.162546          16004 
    230000   3569.6543      102054.92      1393.74        102979.33      102115.2       101070.22      933.63914      1383.7504      184.83955      7384.0087      4313.2699      11697.279      170922.86      44.047715      44.047715      88.09543           16004 
    231000   3602.9407      97831.912      1400.0257      97470.28       99420.904      96604.552      1179.0772     -157.51076     -681.68517      7452.8633      4390.4309      11843.294      171408.77      44.089416      44.089416      88.178833          16004 
    232000   3579.1487      96784.2        1406.3122      96323.84       97870.254      96158.506      758.07217     -1756.5689      1803.4757      7403.6485      4314.0048      11717.653      171386.62      44.087517      44.087517      88.175034          16004 
    233000   3589.471       96978.715      1412.5987      96395.014      96871.993      97669.139      758.08027      2363.985       2600.0489      7425.0007      4327.7121      11752.713      171407.32      44.089292      44.089292      88.178584          16004 
    234000   3603.4397      96500.036      1418.8842      96322.942      97968.32       95208.848      223.49446      446.67735      1188.4226      7453.8955      4360.358       11814.254      171418.77      44.090273      44.090273      88.180546          16004 
    235000   3621.7365      102756.27      1425.169       103815.74      103551.39      100901.68      771.9883      -1392.3636     -457.40787      7491.7434      4406.8693      11898.613      171022.71      44.056291      44.056291      88.112581          16004 
    236000   3576.5847      102237.59      1431.4536      102822.8       101968.51      101921.47      1505.8324     -563.81348     -733.38279      7398.3447      4475.4382      11873.783      171032.64      44.057144      44.057144      88.114287          16004 
    237000   3575.2602      102196.62      1437.7401      102082.29      101084.65      103422.91      2415.205       1163.7929     -1536.0636      7395.6048      4362.3064      11757.911      170965.95      44.051417      44.051417      88.102833          16004 
    238000   3615.4895      100822.22      1444.0264      101835.03      101484.45      99147.2       -234.4816       950.77089      1431.0523      7478.8212      4391.2637      11870.085      171086.26      44.061747      44.061747      88.123495          16004 
    239000   3571.5368      104760.83      1450.3121      105480.37      104323.84      104478.26     -920.58732     -1232.9279      2185.0683      7387.9027      4416.677       11804.58       170754.46      44.033244      44.033244      88.066488          16004 
    240000   3590.679       101177.63      1456.5982      100091.76      102570.73      100870.39     -2775.5059      1359.6054      2594.344       7427.4994      4407.6522      11835.152      171158.22      44.067924      44.067924      88.135847          16004 
    241000   3603.1025      98672.917      1462.8825      99770.04       98353.069      97895.643     -1154.3373     -1577.3639     -383.68472      7453.198       4321.1321      11774.33       171174.15      44.069291      44.069291      88.138581          16004 
    242000   3629.8479      96614.26       1470.779       95190.437      96962.746      97689.597      1587.9659      550.46278      642.06161      7508.5222      4342.2026      11850.725      171477.32      44.095293      44.095293      88.190585          16004 
    243000   3567.8429      99662.741      1477.0691      100315.84      100107.09      98565.289      1236.1941     -474.19475      1738.6976      7380.2618      4404.8729      11785.135      171187.59      44.070444      44.070444      88.140888          16004 
    244000   3645.8063      101303.52      1483.3533      100713.72      101569.58      101627.25     -2104.1965      569.95631      555.11068      7541.5329      4345.0732      11886.606      171139.41      44.066309      44.066309      88.132619          16004 
    245000   3594.8657      103954.84      1489.6413      102914.26      103816.26      105134        -611.20708     -1379.3584     -981.99739      7436.1599      4358.4565      11794.616      170793.35      44.036587      44.036587      88.073174          16004 
    246000   3567.4229      102161.98      1495.9271      101534.77      102025.29      102925.9      -1097.7397      580.12213      1775.5915      7379.393       4349.5533      11728.946      170970.58      44.051814      44.051814      88.103627          16004 
    247000   3622.096       97943.48       1502.2125      98250.395      97554.726      98025.317      617.89087     -230.89674      1990.5087      7492.487       4335.7377      11828.225      171361.17      44.085335      44.085335      88.17067           16004 
    248000   3574.4347      99881.153      1508.4962      99075.438      100714.64      99853.382     -354.95147     -1777.1024      1432.9445      7393.8972      4464.8993      11858.797      171277.92      44.078194      44.078194      88.156389          16004 
    249000   3557.2417      103430.36      1514.7815      104279.83      103406.5       102604.75      1374.864       615.16552      818.62383      7358.3326      4319.5807      11677.913      170933.64      44.048641      44.048641      88.097282          16004 
    250000   3600.2041      101053.35      1521.0679      100781.3       100920.73      101458.04      728.20404     -1019.9734      2042.8238      7447.2026      4354.7129      11801.915      171070.81      44.06042       44.06042       88.120841          16004 
    251000   3595.6559      98046.926      1527.3534      97077.948      98974.872      98087.957     -1635.5223     -2359.2174      1359.3971      7437.7943      4313.6729      11751.467      171340.64      44.083574      44.083574      88.167149          16004 
    252000   3558.0492      98360.026      1533.6389      98984.29       98664.844      97430.944      560.70915     -504.82841     -547.64002      7360.0031      4403.9772      11763.98       171309.61      44.080913      44.080913      88.161825          16004 
    253000   3589.7629      95763.425      1539.9224      96339.177      95431.85       95519.246     -1211.0347     -584.60952     -1125.2214      7425.6045      4339.1606      11764.765      171491.23      44.096485      44.096485      88.192971          16004 
    254000   3572.6261      97760.8        1546.2076      97264.634      97763.418      98254.347      2218.5279      1562.8034     -1914.6871      7390.1562      4351.6675      11741.824      171289.49      44.079187      44.079187      88.158374          16004 
    255000   3634.615       97648.916      1552.4928      97363.933      97692.107      97890.707      2360.4695      2368.2268     -1040.8735      7518.3831      4276.1858      11794.569      171332.82      44.082904      44.082904      88.165807          16004 
    256000   3587.9455      100971.63      1558.7794      101717.54      99801.185      101396.17      231.79022      211.73373      847.05859      7421.8451      4418.1661      11840.011      171123.8       44.06497       44.06497       88.129939          16004 
    257000   3585.3366      101009.24      1565.0646      102325.88      99824.657      100877.19     -31.938559      1895.0726     -350.64203      7416.4484      4240.1347      11656.583      170965.17      44.05135       44.05135       88.102699          16004 
    258000   3621.4547      102193.99      1571.351       102211.13      100962.29      103408.56     -1432.9098      1661.7863      1658.6972      7491.1605      4325.6496      11816.81       170984.33      44.052994      44.052994      88.105989          16004 
    259000   3620.5639      104262.32      1577.6364      104421.8       104211.76      104153.38      126.72704     -285.6125       871.15411      7489.3178      4348.0686      11837.386      170906.6       44.046318      44.046318      88.092636          16004 
    260000   3605.1112      100679.66      1583.9205      99991.608      101819.51      100227.85     -528.11771      506.49541     -1432.0474      7457.3532      4412.5558      11869.909      171077.14      44.060964      44.060964      88.121928          16004 
    261000   3617.7983      100053.57      1590.2054      100971.95      99546.279      99642.475     -4142.2568      1321.6376      945.73147      7483.5971      4307.2466      11790.844      171182.41      44.069999      44.069999      88.139999          16004 
    262000   3634.0621      99799.658      1596.4909      100465.31      100170.03      98763.627      339.65095      2283.8966      923.9557       7517.2395      4313.1437      11830.383      171301.8       44.080242      44.080242      88.160485          16004 
    263000   3562.4442      99544.148      1602.7746      99661.766      100055.45      98915.23       210.73898      2149.4055     -1308.3485      7369.0944      4392.1837      11761.278      171201.92      44.071674      44.071674      88.143347          16004 
    264000   3603.4167      99077.199      1609.0597      100563.96      98932.159      97735.484     -1116.5864      1834.3211     -478.2568       7453.848       4337.9617      11791.81       171247.62      44.075595      44.075595      88.15119           16004 
    265000   3585.7996      94135.44       1615.3441      94395.446      93373.797      94637.076     -1085.2082      423.3635      -1165.9481      7417.4061      4294.1119      11711.518      171524.3       44.09932       44.09932       88.198639          16004 
    266000   3635.0026      94928.464      1621.6282      96236.144      94146.267      94402.982      100.01544      105.43397     -913.12906      7519.185       4279.836       11799.021      171556.29      44.102061      44.102061      88.204121          16004 
    267000   3557.0263      100178.88      1627.9118      100140.64      99831.403      100564.61     -250.88054      464.93473     -1451.3262      7357.8871      4298.457       11656.344      171131.41      44.065623      44.065623      88.131245          16004 
    268000   3594.8978      98613.468      1634.1959      99221.543      99117.213      97501.649      259.21163     -2295.2462     -20.282338      7436.2262      4368.0195      11804.246      171341.08      44.083612      44.083612      88.167223          16004 
    269000   3599.7299      97787.059      1640.4798      97373.222      98462.788      97525.167     -1577.0431      1437.5171      221.83417      7446.2217      4388.2492      11834.471      171374.7       44.086494      44.086494      88.172989          16004 
    270000   3616.8617      101692.97      1646.7654      101928.59      101568.29      101582.05     -1172.583       401.52893      552.83626      7481.6596      4212.7398      11694.399      170938.72      44.049077      44.049077      88.098155          16004 
    271000   3626.1712      102878.82      1653.0474      102700.79      102481.73      103453.95     -717.82857      2188.9431      1167.126       7500.9168      4366.0527      11866.969      171015.43      44.055666      44.055666      88.111331          16004 
    272000   3608.1938      102677.17      1659.3314      100652.09      103260.69      104118.74      109.04658     -476.99828     -714.22654      7463.7297      4423.819       11887.549      170974.08      44.052115      44.052115      88.104229          16004 
    273000   3624.0812      102642.63      1665.6147      103018.07      102225.08      102684.75     -114.45322     -461.12215     -429.71033      7496.5936      4438.1443      11934.738      171016.55      44.055762      44.055762      88.111524          16004 
    274000   3630.9188      101546.12      1671.897       100636.94      102961.49      101039.91     -851.89147      216.8324       510.87214      7510.7374      4233.5143      11744.252      170949.26      44.049982      44.049982      88.099965          16004 
    275000   3572.8645      97471.234      1678.1808      96894.478      98058.421      97460.801      850.98502      481.2722       638.30179      7390.6492      4330.8609      11721.51       171318.83      44.081703      44.081703      88.163407          16004 
    276000   3586.4916      97136.406      1684.4666      97286.407      97852.006      96270.805      717.21977     -1011.6867      1064.6365      7418.8375      4378.0343      11796.872      171394.29      44.088175      44.088175      88.176349          16004 
    277000   3578.1767      99232.518      1690.7499      99744.07       98728.35       99225.135      628.33079     -649.32879     -466.91123      7401.6377      4341.3228      11742.96       171095.5       44.06254       44.06254       88.12508           16004 
    278000   3610.8763      95696.172      1697.0331      96009.679      95870.576      95208.261      526.51272     -641.82761     -1550.3896      7469.2786      4404.1616      11873.44       171540.55      44.100712      44.100712      88.201423          16004 
    279000   3596.4542      99906.713      1703.3162      99659.383      99862.825      100197.93     -76.285737      319.18292      153.67926      7439.4457      4323.4024      11762.848      171177.91      44.069613      44.069613      88.139227          16004 
    280000   3597.4928      97657.935      1709.5995      98293.175      96940.861      97739.77      -400.82604     -181.89927      289.45388      7441.5942      4483.8448      11925.439      171478.5       44.095394      44.095394      88.190788          16004 
    281000   3597.9343      100064.79      1715.8817      100689.42      100012.71      99492.251     -435.39283     -1803.6533      393.72845      7442.5073      4336.4832      11778.991      171135.37      44.065962      44.065962      88.131925          16004 
    282000   3650.7112      98791.193      1722.1633      99338.965      99473.393      97561.22      -1605.453       1882.8675      389.42134      7551.6791      4420.3092      11971.988      171391.44      44.08793       44.08793       88.175861          16004 
    283000   3607.2944      102453.22      1728.4458      101808.9       102371.2       103179.56      1718.2943     -454.07027     -999.73984      7461.8691      4342.8173      11804.686      170859         44.042228      44.042228      88.084457          16004 
    284000   3594.0766      103640.31      1734.7275      103027.72      104919.81      102973.42      865.69109     -151.47383     -674.78025      7434.5275      4433.5634      11868.091      170955.97      44.050559      44.050559      88.101118          16004 
    285000   3596.7055      104591.97      1741.0123      104408.92      103759.26      105607.72     -1309.1237     -615.59803      3069.803       7439.9654      4358.2098      11798.175      170748.5       44.032732      44.032732      88.065464          16004 
    286000   3604.5543      100611.58      1747.2956      101555.95      99899.066      100379.71     -777.98641     -751.30056      871.8341       7456.2011      4439.704       11895.905      171206.41      44.072059      44.072059      88.144118          16004 
[...]
   3930000   3174.6415      100613.48      6357.4519      87166.414      110319.33      104354.71      385.77132     -879.08155     -436.84305      6566.9049      11469.581      18036.486      192434.09      45.446078      45.446078      93.172808          16004 
   3931000   3180.9603      102149.97      6364.1888      92248.92       107517.98      106683.02      1074.4681      1526.8063     -5594.5287      6579.9758      11478.999      18058.975      192071.87      45.417546      45.417546      93.114311          16004 
   3932000   3181.774       103602.94      6370.9428      92005.124      111297.01      107506.7      -770.01702      2615.3509      1739.0943      6581.6588      11501.598      18083.256      191683.85      45.386941      45.386941      93.051567          16004 
   3933000   3153.6962      99010.222      6377.6927      92136.143      99728.145      105166.38     -828.18546     -3485.4036      1391.4056      6523.5786      11486.594      18010.173      192853.09      45.479039      45.479039      93.240383          16004 
   3934000   3183.2296      100312.15      6384.4396      88623.562      105865.38      106447.5      -1773.9053      119.25807     -420.66934      6584.67        11463.649      18048.319      192225.15      45.429624      45.429624      93.139074          16004 
   3935000   3181.1465      96925.401      6391.1897      87440.092      100663.01      102673.1       22.100966     -2276.4824      204.64014      6580.361       11440.063      18020.424      192673.74      45.464937      45.464937      93.211471          16004 
   3936000   3172.9507      102520.92      6397.9315      89772.903      106135.3       111654.57     -864.1479       1172.7757      687.11934      6563.4076      11485.053      18048.461      192226.49      45.42973       45.42973       93.13929           16004 
   3937000   3212.0671      100545.85      6404.6793      87832.601      107196.03      106608.9      -945.89086     -3072.5559     -2544.3502      6644.3217      11420.962      18065.284      191948.5       45.40782       45.40782       93.094371          16004 
   3938000   3193.4002      97902.061      6411.4252      89815.28       102168.79      101722.11      1386.3751      730.47722      1839.087       6605.7083      11431.957      18037.665      192389.31      45.442553      45.442553      93.16558           16004 
   3939000   3203.489       99708.222      6418.1671      91250.449      108274.42      99599.793     -314.81215      1029.0682     -492.47929      6626.5776      11426.411      18052.989      192133.26      45.422385      45.422385      93.124232          16004 
   3940000   3179.506       100722.82      6424.9158      92466.802      104396.22      105305.44     -2617.365       1724.8241     -286.10531      6576.9674      11489.974      18066.941      191912.8       45.405004      45.405004      93.088599          16004 
   3941000   3199.47        101043.85      6431.6654      94230.143      106383.28      102518.13     -1427.9597     -166.84566      583.17586      6618.264       11428.188      18046.452      192236.46      45.430516      45.430516      93.140902          16004 
   3942000   3182.1158      96387.628      6438.4073      85325.203      101332.09      102505.59     -286.149       -2526.9928     -1123.917       6582.3659      11421.627      18003.993      192908.63      45.483404      45.483404      93.249332          16004 
   3943000   3216.2665      100480.03      6445.1521      89679.308      106711.37      105049.41     -2799.0264     -7.6391391      1075.8361      6653.0083      11376.991      18029.999      192490.58      45.450525      45.450525      93.181924          16004 
   3944000   3201.3899      100312.56      6451.9022      88824.57       105917.18      106195.91     -223.1066       1499.1658      808.91849      6622.2353      11402.184      18024.42       192573.05      45.457015      45.457015      93.19523           16004 
   3945000   3173.8444      102775.46      6458.6438      91027.111      111182.52      106116.74      2563.0923      1836.583       2053.1522      6565.2561      11483.282      18048.538      192184.88      45.426452      45.426452      93.13257           16004 
   3946000   3197.5304      100732.98      6465.3771      90131.45       106818.85      105248.63      2967.6564      745.41033     -666.65815      6614.2518      11425.222      18039.474      192332.47      45.438078      45.438078      93.156405          16004 
   3947000   3215.5402      99138.91       6472.111       87985.622      104279.27      105151.83     -645.58553     -1882.9737     -2221.7483      6651.5059      11370.317      18021.822      192616.49      45.460432      45.460432      93.202236          16004 
   3948000   3207.0374      98416.16       6478.8407      89773.21       102951.92      102523.35      1841.1341     -2916.7773      313.51084      6633.9176      11419.704      18053.622      192095.72      45.419426      45.419426      93.118165          16004 
   3949000   3176.9188      101015.06      6485.5705      92135.958      105202.59      105706.62      738.05725      743.67247     -120.20923      6571.6158      11458.325      18029.941      192472.18      45.449076      45.449076      93.178954          16004 
   3950000   3225.7412      98906.889      6492.3111      87539.306      105303.1       103878.26     -703.53385      1323.7834     -1414.9762      6672.6074      11366.08       18038.687      192326.87      45.437636      45.437636      93.1555            16004 
   3951000   3220.5011      98232.615      6499.0577      86468.059      104040.27      104189.52      34.785881      460.41562     -130.89372      6661.7678      11385.14       18046.908      192202.49      45.427839      45.427839      93.135414          16004 
   3952000   3216.2035      101669.62      6505.7867      91448.537      106466.01      107094.32      113.7728       12.15684       394.76739      6652.878       11407.398      18060.276      191980.66      45.410356      45.410356      93.09957           16004 
   3953000   3198.478       102703.43      6512.5227      92766.564      104172.69      111171.04     -1074.3609      1572.1606     -117.72812      6616.2121      11412.61       18028.822      192474.99      45.449298      45.449298      93.179409          16004 
   3954000   3205.582       102071.12      6519.2658      92956.973      105356.4       107899.98      2136.5239     -165.13315      557.20011      6630.907       11429.694      18060.601      191947.98      45.407779      45.407779      93.094287          16004 
   3955000   3184.5592      101305.68      6526.0089      90548.155      107036.14      106332.74     -1358.1981     -1039.7939      929.87791      6587.4203      11473.6        18061.021      191937.14      45.406924      45.406924      93.092534          16004 
   3956000   3220.0837      101185.9       6532.7484      90967.927      103738.01      108851.75      658.61194      2323.835      -78.213794      6660.9044      11400.586      18061.49       191930.46      45.406397      45.406397      93.091454          16004 
   3957000   3199.8686      103847.56      6539.4947      94033.016      108052.86      109456.82      3049.2222     -435.68268     -758.29836      6619.0886      11454.486      18073.575      191724.56      45.390154      45.390154      93.058153          16004 
   3958000   3215.1696      104513.13      6546.233       94187.78       111165.23      108186.38     -1949.371      -3102.9414     -1041.7265      6650.7395      11419.962      18070.701      191789.13      45.39525       45.39525       93.0686            16004 
   3959000   3201.1941      99172.523      6552.9695      88118.539      103526.16      105872.86      1852.678       966.09056     -2527.889       6621.8304      11417.15       18038.98       192301.41      45.435631      45.435631      93.15139           16004 
   3960000   3223.8876      101224.6       6559.7016      90243.319      107559.39      105871.09      168.67196     -300.83883      416.38609      6668.7731      11391.722      18060.495      191954.33      45.408279      45.408279      93.095313          16004 
   3961000   3208.8405      98194.177      6566.43        89874.884      102141.31      102566.34     -539.0253      -2063.4746      802.22874      6637.6472      11392.836      18030.483      192435.22      45.446167      45.446167      93.172991          16004 
   3962000   3217.0269      101421.98      6573.1622      89512.446      109883.31      104870.18      983.16363      2772.6739      452.04977      6654.5813      11377.133      18031.715      192413.32      45.444443      45.444443      93.169455          16004 
   3963000   3194.047       97070.52       6579.8973      86323.586      102901.59      101986.38     -1856.4403      737.71847     -1682.3396      6607.0462      11419.946      18026.992      192491.78      45.450619      45.450619      93.182117          16004 
   3964000   3215.7738      101753.44      6586.6304      93667.583      106059.99      105532.75     -2663.1977      2151.2997     -24.548172      6651.9891      11400.384      18052.373      192081.05      45.418269      45.418269      93.115794          16004 
   3965000   3193.4911      103115.95      6593.365       91416.711      109105.53      108825.61     -5.3338251     -1594.4304      2068.1955      6605.8964      11413.792      18019.688      192606.39      45.459638      45.459638      93.200607          16004 
   3966000   3206.6327      100879.27      6600.0986      92046.13       105304.44      105287.24     -682.83305      1073.2492     -2311.3909      6633.0805      11404.803      18037.884      192311.85      45.436454      45.436454      93.153076          16004 
   3967000   3219.1297      101302.28      6606.8351      89111.55       108855.35      105939.95      272.4054      -1241.8792     -1023.8287      6658.9311      11377.861      18036.792      192307.74      45.43613       45.43613       93.152412          16004 
   3968000   3223.8463      102356.52      6613.5645      91212.144      106947.1       108910.31     -747.91578     -136.02784      1664.5463      6668.6877      11372.946      18041.633      192252.83      45.431805      45.431805      93.143545          16004 
   3969000   3235.7719      100288.82      6620.2985      91564.336      103162.06      106140.07     -1932.599       469.9191      -217.95629      6693.3563      11349.567      18042.923      192231.02      45.430087      45.430087      93.140023          16004 
   3970000   3213.6165      100307.81      6627.0304      87784.162      107775.18      105364.11     -463.67436      986.06667      2082.2581      6647.5267      11388.671      18036.198      192337.32      45.438459      45.438459      93.157188          16004 
   3971000   3200.9502      104003.52      6633.7662      94014.716      107988.57      110007.27      173.99019     -2397.8189      1356.8593      6621.3258      11440.549      18061.875      191914.85      45.405166      45.405166      93.08893           16004 
   3972000   3207.0655      101156.62      6640.4989      94283.182      106698.61      102488.07     -428.57802      1615.9748     -1268.9134      6633.9757      11395.719      18029.694      192427.91      45.445592      45.445592      93.171811          16004 
   3973000   3199.4324      97903.272      6647.2294      86357.006      104408.17      102944.64      617.14846      991.6151       612.45383      6618.1862      11374.478      17992.664      193016.81      45.491905      45.491905      93.266761          16004 
   3974000   3214.8042      99776.843      6653.9648      87718.805      105552.06      106059.67      400.88352     -857.11967     -1194.0552      6649.9835      11393.219      18043.202      192205.9       45.428108      45.428108      93.135966          16004 
   3975000   3188.6438      99273.524      6660.7021      89894.825      101309.36      106616.38      2585.5471      2098.0356     -2837.8147      6595.8695      11423.15       18019.019      192594.81      45.458727      45.458727      93.19874           16004 
   3976000   3209.2704      102461.64      6667.4311      93864.873      108480.07      105039.96     -2463.1243     -139.64915      376.85628      6638.5366      11388.807      18027.343      192457.75      45.447941      45.447941      93.176627          16004 
   3977000   3216.2525      99445.079      6674.1666      87027.571      106858.99      104448.68     -417.02638      396.37063      1575.7804      6652.9795      11375.923      18028.902      192430.61      45.445805      45.445805      93.172247          16004 
   3978000   3210.2202      102325.08      6680.9049      96773.611      103321.8       106879.82      925.86534     -753.44447     -596.80597      6640.5013      11405.029      18045.53       192164.67      45.424859      45.424859      93.129305          16004 
   3979000   3239.6862      95927.987      6687.6422      85305.177      101446.81      101031.98     -2667.3706      267.64957     -2052.6673      6701.4533      11306.9        18008.353      192753.8       45.471232      45.471232      93.224378          16004 
   3980000   3220.3025      100520.74      6694.3771      91189.313      104633.64      105739.26     -937.13117     -133.31607     -69.440777      6661.357       11359.186      18020.543      192552.25      45.455378      45.455378      93.191874          16004 
   3981000   3207.1931      100121.09      6701.1116      86672.011      105622.39      108068.89      1461.9738     -166.66412     -2418.6807      6634.2396      11383.909      18018.148      192597.28      45.458921      45.458921      93.199139          16004 
   3982000   3254.6895      106429.72      6707.8441      99699.285      108610.8       110979.06     -1019.6681     -2174.4506      515.80301      6732.4884      11330.99       18063.478      191869.4       45.401582      45.401582      93.081581          16004 
   3983000   3267.9197      102563.29      6714.5817      92947.474      105204.84      109537.55     -69.733196      1265.5074      229.73394      6759.8556      11274.524      18034.379      192313.54      45.436586      45.436586      93.153348          16004 
   3984000   3226.9382      98648.994      6721.314       86610.032      103647.24      105689.71      3876.4122     -927.48749      455.1554       6675.0833      11317.93       17993.013      192961.53      45.487561      45.487561      93.257855          16004 
   3985000   3245.2003      99416.443      6728.057       88838.812      105076.65      104333.87      631.10431     -569.11415     -729.79615      6712.8595      11302.691      18015.551      192595.17      45.458756      45.458756      93.198799          16004 
   3986000   3256.029       101818.39      6734.7923      91684.657      106268.71      107501.8      -754.74057     -5306.1829     -910.84587      6735.2592      11283.755      18019.015      192527.07      45.453397      45.453397      93.187812          16004 
   3987000   3219.8238      99225.343      6741.5266      87087.019      109316.8       101272.21     -402.0694      -2460.0105      678.26206      6660.3668      11358.657      18019.024      192516.4       45.452557      45.452557      93.18609           16004 
   3988000   3245.2154      98179.669      6748.2594      87798.783      101810.04      104930.18     -365.73808      489.13638     -202.35852      6712.8906      11289.632      18002.522      192770.44      45.472541      45.472541      93.227061          16004 
   3989000   3241.7627      102625.72      6755.001       89981.367      108990.11      108905.69      2263.82        2610.0802     -375.38183      6705.7485      11322.925      18028.673      192339.9       45.438663      45.438663      93.157605          16004 
   3990000   3230.6736      100424.05      6761.7328      88058.859      108844.94      104368.36      569.07875     -512.14674      1094.887       6682.8102      11327.711      18010.522      192623.2       45.460961      45.460961      93.20332           16004 
   3991000   3237.2458      101721.37      6768.4689      93704.826      106065.23      105394.07      8.7640483      1525.2283     -150.64311      6696.4052      11332.572      18028.978      192312.7       45.43652       45.43652       93.153212          16004 
   3992000   3248.4743      99914.401      6775.2003      88404.522      102826.91      108511.77     -2804.3782      314.11954     -925.14133      6719.6318      11280.05       17999.682      192781.26      45.473392      45.473392      93.228806          16004 
   3993000   3221.7328      100211.84      6781.9393      89954.775      103152.68      107528.05      0.3795423     -5.7203488      77.204989      6664.3157      11340.787      18005.102      192698.83      45.466909      45.466909      93.215515          16004 
   3994000   3248.4539      102618.61      6788.6788      90994.769      111102.07      105758.99     -825.94528     -478.64998     -161.20301      6719.5897      11318.36       18037.95       192182.55      45.426268      45.426268      93.132193          16004 
   3995000   3237.3259      105242.75      6795.4153      93882.965      112213.69      109631.58      1793.4378      11.549553      1386.2551      6696.5709      11352.601      18049.172      191991.76      45.411231      45.411231      93.101364          16004 
   3996000   3237.2509      99607.257      6802.157       86632.444      105029.72      107159.61     -2273.4215      2243.5295      153.19907      6696.4157      11312.638      18009.054      192614.93      45.46031       45.46031       93.201985          16004 
   3997000   3248.9428      99169.824      6808.8982      93197.454      101809.5       102502.52     -2800.8748     -1505.1439     -1891.9814      6720.6009      11319.339      18039.94       192097.33      45.419552      45.419552      93.118425          16004 
   3998000   3234.7913      101811.6       6815.629       91384.815      108703.8       105346.18     -1045.2035     -966.01335     -2189.9023      6691.328       11311.492      18002.819      192664.4       45.464201      45.464201      93.209963          16004 
   3999000   3226.0817      102445.87      6822.3713      91868.436      106780.08      108689.1      -1444.1901      1319.4824      1158.3591      6673.3117      11370.639      18043.951      191993.06      45.411333      45.411333      93.101574          16004 
   4000000   3216.0299      99211.492      6829.1116      88143.576      104919.1       104571.8       1313.073      -1296.1972      2426.9384      6652.5191      11358.622      18011.141      192506.52      45.45178       45.45178       93.184497          16004 
Loop time of 6829.11 on 8 procs for 1000000 steps with 16004 atoms

Performance: 6.326 ns/day, 3.794 hours/ns, 146.432 timesteps/s
60.7% CPU use with 1 MPI tasks x 8 OpenMP threads

MPI task timing breakdown:
Section |  min time  |  avg time  |  max time  |%varavg| %total
---------------------------------------------------------------
Pair    | 6546.6     | 6546.6     | 6546.6     |   0.0 | 95.86
Neigh   | 10.525     | 10.525     | 10.525     |   0.0 |  0.15
Comm    | 39.1       | 39.1       | 39.1       |   0.0 |  0.57
Output  | 1.3173     | 1.3173     | 1.3173     |   0.0 |  0.02
Modify  | 206.08     | 206.08     | 206.08     |   0.0 |  3.02
Other   |            | 25.47      |            |       |  0.37

Nlocal:          16004 ave       16004 max       16004 min
Histogram: 1 0 0 0 0 0 0 0 0 0
Nghost:          12129 ave       12129 max       12129 min
Histogram: 1 0 0 0 0 0 0 0 0 0
Neighs:              0 ave           0 max           0 min
Histogram: 1 0 0 0 0 0 0 0 0 0
FullNghs:  1.28149e+06 ave 1.28149e+06 max 1.28149e+06 min
Histogram: 1 0 0 0 0 0 0 0 0 0

Total # of neighbors = 1281486
Ave neighs/atom = 80.072857
Neighbor list builds = 30939
Dangerous builds = 0
Total wall time: 7:06:17
