
atom_style atomic
units metal
boundary p p p
#atom_modify sort 0 0.0
newton on

read_data data.lammps
Reading data file ...
  orthogonal box = (0 0 0) to (43.790145 43.790145 87.58029)
  1 by 1 by 1 MPI processor grid
  reading atoms ...
  16004 atoms
  read_data CPU = 0.040 seconds
# replicate 10 10 20

### interactions

pair_style flare
pair_coeff * * lmp.flare
Reading potential file lmp.flare with DATE: Thu

# compute unc all flare/std/atom L_inv_lmp.flare sparse_desc_lmp.flare
# compute MaxUnc all reduce max c_unc

mass 1 12.011000
mass 2 28.085000

thermo_style custom step temp press cpu pxx pyy pzz pxy pxz pyz ke pe etotal vol lx ly lz atoms    #c_MaxUnc
thermo 1000
timestep 0.0005
restart 100000 restart_*.dat

#################### Equilibrate at P and T_es ##############################
velocity all create $T 41928459 rot yes dist gaussian
velocity all create 3600 41928459 rot yes dist gaussian
fix mom all momentum 1000 linear 1 1 1 angular

fix 1 all npt temp $T $T $(100.0*dt) iso $P $P $(1000.0*dt)
fix 1 all npt temp 3600 $T $(100.0*dt) iso $P $P $(1000.0*dt)
fix 1 all npt temp 3600 3600 $(100.0*dt) iso $P $P $(1000.0*dt)
fix 1 all npt temp 3600 3600 0.050000000000000002776 iso $P $P $(1000.0*dt)
fix 1 all npt temp 3600 3600 0.050000000000000002776 iso 300000 $P $(1000.0*dt)
fix 1 all npt temp 3600 3600 0.050000000000000002776 iso 300000 300000 $(1000.0*dt)
fix 1 all npt temp 3600 3600 0.050000000000000002776 iso 300000 300000 0.5
dump 1 all custom 1000 1equil.bin id type x y z vx vy vz
run   10000 # report performance
Neighbor list info ...
  update every 1 steps, delay 10 steps, check yes
  max neighbors/atom: 2000, page size: 100000
  master list distance cutoff = 6
  ghost atom cutoff = 6
  binsize = 6, bins = 8 8 15
  1 neighbor lists, perpetual/occasional/extra = 1 0 0
  (1) pair flare/kk, perpetual
      attributes: full, newton on, kokkos_device
      pair build: full/bin/kk/device
      stencil: full/bin/3d
      bin: kk/device
Per MPI rank memory allocation (min/avg/max) = 15.9 | 15.9 | 15.9 Mbytes
   Step          Temp          Press           CPU            Pxx            Pyy            Pzz            Pxy            Pxz            Pyz           KinEng         PotEng         TotEng         Volume           Lx             Ly             Lz          Atoms   
         0   3600           67557.906      0              67141.204      67594.979      67937.535     -846.34414      34.024028     -558.57611      7446.7804     -4000.2205      3446.5599      167941.93      43.790145      43.790145      87.58029           16004 
      1000   3605.6465      300225.66      6.4327774      301442.76      299317.3       299916.92      910.19124      1708.4901      3871.3969      7458.4603      4978.4227      12436.883      156636.58      42.784625      42.784625      85.56925           16004 
      2000   3594.4659      297979.61      12.838029      299478.39      296330.29      298130.14      1049.895      -4481.8934     -74.011123      7435.3328      4970.2831      12405.616      156792.31      42.798799      42.798799      85.597598          16004 
      3000   3552.1508      300675.11      19.243693      299877.41      300727.09      301420.83     -2522.9085      1030.8802      1424.8933      7347.8019      4887.4369      12235.239      156542.24      42.776034      42.776034      85.552068          16004 
      4000   3607.4992      300179.55      25.64337       298760.18      300216.61      301561.87     -473.29591     -1138.6918     -1913.0436      7462.2928      5020.4926      12482.785      156786.21      42.798245      42.798245      85.59649           16004 
      5000   3623.8243      301073.53      32.044839      300211.39      301665.5       301343.7       1320.9345     -124.12442      57.111113      7496.0622      4803.8612      12299.923      156557.43      42.777417      42.777417      85.554834          16004 
      6000   3616.3674      300430.75      38.45616       298354.36      301624.42      301313.48     -1581.3078      490.05834      2084.8927      7480.6372      4964.0924      12444.73       156598.73      42.781178      42.781178      85.562357          16004 
      7000   3604.6842      300761.69      44.867534      299852.07      300879.2       301553.8      -1438.3827     -2422.827      -1947.3097      7456.4698      4898.3294      12354.799      156581.59      42.779618      42.779618      85.559236          16004 
      8000   3599.115       299768.69      51.276376      299462.65      300840.67      299002.75     -1100.7244     -71.132293      291.39997      7444.9497      4871.1937      12316.143      156576.11      42.779119      42.779119      85.558237          16004 
      9000   3644.4964      298634.16      57.683111      298021.01      298991.7       298889.78      979.95066     -2633.823      -1643.0917      7538.8233      4918.7944      12457.618      156736.56      42.793726      42.793726      85.587452          16004 
     10000   3517.4518      300914.04      64.090188      301318.14      300770.59      300653.39     -1316.4453     -1177.6406      1778.915       7276.0253      4979.5014      12255.527      156566.62      42.778254      42.778254      85.556509          16004 
Loop time of 64.0902 on 8 procs for 10000 steps with 16004 atoms

Performance: 6.740 ns/day, 3.561 hours/ns, 156.030 timesteps/s
60.4% CPU use with 1 MPI tasks x 8 OpenMP threads

MPI task timing breakdown:
Section |  min time  |  avg time  |  max time  |%varavg| %total
---------------------------------------------------------------
Pair    | 60.999     | 60.999     | 60.999     |   0.0 | 95.18
Neigh   | 0.090116   | 0.090116   | 0.090116   |   0.0 |  0.14
Comm    | 0.3893     | 0.3893     | 0.3893     |   0.0 |  0.61
Output  | 0.013125   | 0.013125   | 0.013125   |   0.0 |  0.02
Modify  | 2.3378     | 2.3378     | 2.3378     |   0.0 |  3.65
Other   |            | 0.2605     |            |       |  0.41

Nlocal:          16004 ave       16004 max       16004 min
Histogram: 1 0 0 0 0 0 0 0 0 0
Nghost:          13632 ave       13632 max       13632 min
Histogram: 1 0 0 0 0 0 0 0 0 0
Neighs:              0 ave           0 max           0 min
Histogram: 1 0 0 0 0 0 0 0 0 0
FullNghs:  1.47382e+06 ave 1.47382e+06 max 1.47382e+06 min
Histogram: 1 0 0 0 0 0 0 0 0 0

Total # of neighbors = 1473816
Ave neighs/atom = 92.090477
Neighbor list builds = 289
Dangerous builds = 0
run  990000
Per MPI rank memory allocation (min/avg/max) = 16.08 | 16.08 | 16.08 Mbytes
   Step          Temp          Press           CPU            Pxx            Pyy            Pzz            Pxy            Pxz            Pyz           KinEng         PotEng         TotEng         Volume           Lx             Ly             Lz          Atoms   
     10000   3517.4518      300914.04      0              301318.14      300770.59      300653.39     -1316.4453     -1177.6406      1778.915       7276.0253      4979.5014      12255.527      156566.62      42.778254      42.778254      85.556509          16004 
     11000   3602.3503      297465.5       6.4130058      296834.65      297185.65      298376.2       2162.0779     -511.14755      5577.9165      7451.642       4943.8928      12395.535      156789.21      42.798517      42.798517      85.597034          16004 
     12000   3587.9095      294243.36      12.819457      295487.5       293299.23      293943.36      324.06467     -2187.9522     -4228.7529      7421.7705      4803.9434      12225.714      156971.57      42.815104      42.815104      85.630208          16004 
     13000   3607.0799      296368.4       19.225974      296994.26      297542.16      294568.79      16.15237      -76.545162     -2758.5661      7461.4254      4908.2756      12369.701      156772.1       42.796961      42.796961      85.593921          16004 
     14000   3592.8606      298015.6       25.630291      297990.66      296960.65      299095.48      733.49197      562.80087     -734.2345       7432.0122      4891.8566      12323.869      156663.13      42.787043      42.787043      85.574086          16004 
     15000   3593.5019      298720.9       32.038837      299079.37      298351.59      298731.75      2368.4657     -1372.4619      2406.3007      7433.3387      4917.083       12350.422      156730.37      42.793163      42.793163      85.586327          16004 
     16000   3645.8065      296084.27      38.448115      297454.47      294872.12      295926.22      976.42404     -1235.8657      1149.2556      7541.5335      4826.0637      12367.597      156815.69      42.800927      42.800927      85.601853          16004 
     17000   3617.8694      297752.58      44.857239      294615.07      298972.88      299669.81     -450.71198      409.83704      1740.9327      7483.7441      4767.3037      12251.048      156694.61      42.789908      42.789908      85.579817          16004 
     18000   3599.2746      299360.52      51.260083      299064.89      301034.41      297982.26     -1524.172       336.79124     -1751.7554      7445.2799      4919.1342      12364.414      156652.62      42.786086      42.786086      85.572171          16004 
     19000   3608.463       297829.82      57.666315      295237.87      298259.05      299992.56     -2958.0739     -1187.4195      1485.3869      7464.2865      4960.8629      12425.149      156716.96      42.791942      42.791942      85.583885          16004 
     20000   3583.3283      296030.99      64.070141      296825.82      295532.39      295734.75     -1605.7693      2769.2727      2839.4573      7412.294       4868.5355      12280.83       156706.78      42.791016      42.791016      85.582032          16004 
     21000   3597.2147      292255.82      70.477145      290461.93      292704.73      293600.8      -966.01254      2795.278      -546.81361      7441.0188      4879.166       12320.185      157114.42      42.828087      42.828087      85.656175          16004 
     22000   3602.4599      297045.17      76.887008      296408.9       297591.45      297135.17      2424.9311     -1437.2073      470.02037      7451.8687      4854.5227      12306.391      156689.93      42.789482      42.789482      85.578965          16004 
     23000   3599.1555      299477.91      83.290965      299806.99      298678.39      299948.35     -1577.0747     -580.98461      252.98961      7445.0334      4892.3013      12337.335      156657.95      42.786571      42.786571      85.573143          16004 
     24000   3580.5589      298716.7       89.696663      298130.99      298644.44      299374.65      901.77828     -74.188872      378.04781      7406.5655      4920.076       12326.642      156608.82      42.782097      42.782097      85.564194          16004 
     25000   3611.0231      300084.82      96.1007        300410.03      299150.69      300693.73      1087.3357      4953.4173     -1242.1304      7469.5822      4932.5482      12402.13       156633.51      42.784345      42.784345      85.568691          16004 
     26000   3567.9237      300346.17      102.5066       302689.21      299631.71      298717.6      -707.6173      -332.70843     -330.47983      7380.429       4936.9019      12317.331      156529.75      42.774896      42.774896      85.549792          16004 
     27000   3573.3653      298668.16      108.91156      299406.18      297545.02      299053.27     -637.00395     -1309.5609     -528.26977      7391.6852      5024.8059      12416.491      156705.01      42.790855      42.790855      85.58171           16004 
     28000   3591.0135      302703.41      115.31402      301388.09      304137.46      302584.67     -1192.6628      712.58693      2513.6344      7428.1913      4871.482       12299.673      156353.8       42.758863      42.758863      85.517726          16004 
     29000   3625.8473      305899.72      121.72154      305066.57      306173.28      306459.31     -707.26004     -2617.9577      454.75882      7500.2468      4936.5587      12436.806      156225.68      42.747181      42.747181      85.494361          16004 
     30000   3600.4721      302247.4       128.13053      303637.07      300970.51      302134.62     -64.413733     -4515.7685     -299.51858      7447.7569      4951.3709      12399.128      156485.42      42.770858      42.770858      85.541717          16004 
     31000   3618.1534      300066.53      134.53967      300219.59      298385.61      301594.38      348.61991      337.88369     -3579.9097      7484.3315      4993.0306      12477.362      156630.5       42.784072      42.784072      85.568143          16004 
     32000   3571.5849      300282.75      140.94854      299283.85      301226.84      300337.57     -1167.1023     -91.248291      2380.9613      7388.0022      4968.6098      12356.612      156550.81      42.776815      42.776815      85.553629          16004 
     33000   3600.2369      298856         147.3583       300592.53      299009.28      296966.2      -391.41352     -17.428069      1758.0223      7447.2705      4935.5159      12382.786      156705.6       42.790909      42.790909      85.581817          16004 
     34000   3588.05        298678.5       153.76485      297937.71      297357.83      300739.96     -645.90626      478.03997     -2663.0776      7422.0613      4861.9058      12283.967      156643.97      42.785298      42.785298      85.570596          16004 
     35000   3607.1234      293672.13      160.1713       294324.47      291573.23      295118.7       441.02257      1058.018      -1208.2533      7461.5156      4830.7329      12292.248      156987.86      42.816585      42.816585      85.63317           16004 
     36000   3571.9909      293364.4       166.57607      294115.41      293676.2       292301.58      293.5617       345.84618      194.17371      7388.8421      4839.2385      12228.081      156931.05      42.81142       42.81142       85.622839          16004 
     37000   3617.0204      296916.64      172.98237      298335.09      297562.2       294852.62      1992.0676      479.79925     -3208.891       7481.9879      4931.3533      12413.341      156779.23      42.79761       42.79761       85.595219          16004 
     38000   3623.4711      297802.42      179.38375      297820.11      298878.05      296709.1      -2547.9255     -1860.4419     -1819.3545      7495.3314      4866.5935      12361.925      156720.7       42.792283      42.792283      85.584566          16004 
     39000   3585.4979      299281.79      185.78663      297808.52      298932.9       301103.96     -834.50937      2686.4833     -5262.4214      7416.782       4862.1506      12278.933      156637.5       42.784709      42.784709      85.569419          16004 
     40000   3638.7608      296263.47      192.19171      295962.88      297089.71      295737.81      1378.7791     -525.89434      351.08697      7526.959       4881.3551      12408.314      156787.17      42.798332      42.798332      85.596664          16004 
     41000   3572.8452      299640.97      198.59312      298375.56      300446.76      300100.59     -2043.3611      1400.0165      2270.7896      7390.6093      4974.3649      12364.974      156561.72      42.777808      42.777808      85.555617          16004 
     42000   3614.1997      298057.23      204.9982       297428.47      299364.68      297378.55     -1024.908       3353.2146      907.39501      7476.1531      4880.3949      12356.548      156700.67      42.79046       42.79046       85.58092           16004 
     43000   3610.5357      297467.66      211.4051       299562.23      296571.13      296269.62      1661.4545     -1417.8822      970.8947       7468.574       4933.1903      12401.764      156751.72      42.795106      42.795106      85.590212          16004 
     44000   3586.8425      300126.51      217.81455      300599.08      300110.73      299669.73      1211.8947      1558.8886     -1242.6336      7419.5635      4977.334       12396.897      156550.88      42.776821      42.776821      85.553642          16004 
     45000   3582.1268      299480.57      224.22242      298041.43      300457.47      299942.81     -3641.1448      3102.526      -537.70354      7409.8088      4982.7552      12392.564      156616.01      42.782752      42.782752      85.565505          16004 
     46000   3579.4222      303421.63      230.63099      303976.64      303250.49      303037.74     -1386.5096     -2345.0564      1587.3407      7404.2141      4990.3484      12394.562      156427.56      42.765586      42.765586      85.531172          16004 
     47000   3607.595       301189.44      237.04019      303341.46      300242.69      299984.17     -704.5365       1985.2348     -2926.7373      7462.491       4913.4641      12375.955      156472.4       42.769672      42.769672      85.539344          16004 
     48000   3565.9354      300774.96      243.45003      301622.48      301921.41      298780.99     -3987.714      -2624.543      -71.443309      7376.3159      4923.9219      12300.238      156432.48      42.766034      42.766034      85.532068          16004 
     49000   3608.737       301306.79      249.86449      300843.49      301792.61      301284.26     -3144.7749      2330.0217      739.52288      7464.8534      4904.1572      12369.011      156497.92      42.771996      42.771996      85.543993          16004 
     50000   3574.5033      301681.06      256.27446      301905.83      301903.23      301234.13      429.92829     -804.89353      198.43248      7394.0392      4958.4896      12352.529      156467.41      42.769217      42.769217      85.538434          16004 
     51000   3616.1339      298750.56      262.67789      298982.09      299179.27      298090.34      2173.0634      100.46403      634.09989      7480.1541      4884.5385      12364.693      156644.91      42.785384      42.785384      85.570768          16004 
     52000   3623.8412      295261.25      269.08261      294892.33      293711.26      297180.17     -898.6328       2179.9854     -16.494138      7496.097       4894.6695      12390.767      156744         42.794403      42.794403      85.588806          16004 
     53000   3578.0038      296912.38      275.48659      298152.43      296214.61      296370.11      1452.4555      994.98498      766.0102       7401.2801      4924.6349      12325.915      156685.66      42.789094      42.789094      85.578187          16004 
     54000   3618.7113      300609.04      281.89092      300614.4       300622.89      300589.83      2096.3579      53.791983     -532.96704      7485.4855      4823.849       12309.335      156542.92      42.776096      42.776096      85.552192          16004 
     55000   3617.8805      302567.53      288.29451      302893.42      302521.44      302287.72      691.57389      1567.8517     -599.79502      7483.7671      5000.2347      12484.002      156522.01      42.774191      42.774191      85.548383          16004 
     56000   3607.2382      300002.97      294.69712      301407.24      298818.33      299783.34      1967.3473      2226.1574      83.317962      7461.7529      4922.9036      12384.657      156593.75      42.780726      42.780726      85.561451          16004 
     57000   3636.7263      299107.31      301.09487      298712.96      298497.57      300111.4      -1432.4166     -810.063        1027.559       7522.7505      4871.8809      12394.631      156633.52      42.784346      42.784346      85.568693          16004 
     58000   3560.1029      301107.81      307.49797      301355.57      299938.7       302029.14      3596.7664      2194.0658     -3118.1018      7364.2512      4838.2359      12202.487      156401.81      42.763239      42.763239      85.526479          16004 
     59000   3565.8858      299427.31      313.90568      297610.14      298868.42      301803.36      492.91419      3165.4162      1274.6886      7376.2135      5002.4002      12378.614      156564.63      42.778073      42.778073      85.556146          16004 
     60000   3567.1451      296477.26      320.3114       294843.54      298156.47      296431.78     -1085.0016     -1315.4872     -1815.3429      7378.8183      4907.6247      12286.443      156721.79      42.792382      42.792382      85.584763          16004 
     61000   3620.1162      298057.1       326.71942      296695.45      298257.46      299218.41     -1970.2592      85.151198     -1196.8919      7488.3917      4856.3704      12344.762      156773.33      42.797073      42.797073      85.594146          16004 
     62000   3594.4163      298724.49      333.12879      298649.39      299307.81      298216.28     -2783.0093     -137.24879     -562.83417      7435.2302      4913.8217      12349.052      156649.27      42.785781      42.785781      85.571561          16004 
     63000   3581.5411      299480.97      339.53752      299773.12      298724.64      299945.14      2647.7894      991.41628      1611.6111      7408.5971      4836.9217      12245.519      156513.12      42.773381      42.773381      85.546763          16004 
     64000   3625.7132      300022.08      345.95678      299744.43      298737.45      301584.37      275.21398     -1046.6339     -265.78245      7499.9694      4872.9684      12372.938      156603.02      42.781569      42.781569      85.563139          16004 
     65000   3628.6408      303735.09      352.37163      304197.01      303815.27      303192.99     -2290.8244      879.85744      405.60478      7506.0253      5047.1459      12553.171      156448.13      42.76746       42.76746       85.53492           16004 
     66000   3608.1612      303877.27      358.7776       303862.43      304515.28      303254.09      1048.0756     -1356.8654      3471.256       7463.6622      4967.4383      12431.1        156364.58      42.759846      42.759846      85.519692          16004 
     67000   3555.1286      304907.57      365.18444      304939.94      303330.51      306452.27      449.36414     -509.2201      -562.20716      7353.9616      4869.302       12223.264      156225.2       42.747137      42.747137      85.494274          16004 
     68000   3610.9937      301887         371.58862      301785.69      302942.79      300932.52     -1485.7278     -840.58524      539.16808      7469.5215      4925.8468      12395.368      156477.41      42.770128      42.770128      85.540256          16004 
     69000   3592.9324      302122.36      378.00006      301583.05      300557.99      304226.04      252.04834      2607.6313     -93.162133      7432.1606      4927.0898      12359.25       156421.67      42.765049      42.765049      85.530099          16004 
     70000   3603.5252      299937.72      384.40629      298127.47      299347.2       302338.47      2153.2593      1140.5765      143.31249      7454.0724      4975.8778      12429.95       156614.13      42.782582      42.782582      85.565163          16004 
     71000   3591.592       299059.18      390.80906      298401.67      298473.8       300302.08      1227.5373      828.41166     -2927.1726      7429.3881      4826.2566      12255.645      156636.2       42.784591      42.784591      85.569182          16004 
     72000   3579.186       296481.68      397.21454      295909.03      297166.96      296369.06      327.63309     -2625.8524     -53.682259      7403.7256      4921.4484      12325.174      156844.85      42.803579      42.803579      85.607159          16004 
     73000   3580.0763      297135.04      403.62328      295493.64      297578.74      298332.74      4324.3482      1080.8284      1113.572       7405.5673      4880.0872      12285.654      156701.7       42.790554      42.790554      85.581107          16004 
     74000   3576.2551      297608.72      410.03333      297484.06      297459.8       297882.31      1647.7622      360.10638     -1099.7382      7397.6628      4995.2547      12392.917      156746.06      42.794591      42.794591      85.589182          16004 
     75000   3585.5042      297016.77      416.44015      297100.77      297757.86      296191.68     -246.1254      -12.860115     -689.16135      7416.7951      4783.7337      12200.529      156726.77      42.792835      42.792835      85.585671          16004 
     76000   3623.1748      295310.47      422.85044      296630.46      295196.58      294104.37      1056.9207     -1041.5112      313.44492      7494.7186      4846.076       12340.795      156861.56      42.8051        42.8051        85.610199          16004 
     77000   3562.1892      298098.12      429.25805      297259.18      298419.54      298615.64     -653.71666      1922.9381     -2257.928       7368.5668      4928.6755      12297.242      156663.56      42.787081      42.787081      85.574162          16004 
     78000   3640.0848      299541.38      435.67018      300894.94      298549.6       299179.61      2122.4895      1771.965      -594.67437      7529.6979      4913.5292      12443.227      156718.29      42.792063      42.792063      85.584127          16004 
     79000   3624.9347      299568.8       442.08133      298624.52      300214.22      299867.66     -649.36351     -315.39412      525.3885       7498.359       4851.5088      12349.868      156659.34      42.786697      42.786697      85.573394          16004 
     80000   3594.7761      302125.4       448.48615      301813.94      302251.45      302310.82      1743.6145      923.61789     -4128.3953      7435.9745      4847.4781      12283.453      156424.27      42.765286      42.765286      85.530573          16004 
     81000   3599.1303      302762.94      454.89012      301551.97      303857.89      302878.96      1574.7357     -978.06108      391.35068      7444.9813      4919.5413      12364.523      156377.99      42.761068      42.761068      85.522136          16004 
     82000   3643.7775      299886.25      461.29343      300099.72      299067.31      300491.72      2218.5518      187.68143      932.16113      7537.3363      4926.5931      12463.929      156595.09      42.780847      42.780847      85.561694          16004 
     83000   3611.1481      301121.2       467.70289      301609.61      301929.36      299824.62     -384.70707      894.25322     -785.89061      7469.8407      4882.2061      12352.047      156497.39      42.771949      42.771949      85.543898          16004 
     84000   3638.6075      299689.44      474.10627      302268.42      298938.86      297861.03     -305.79401     -608.797        327.80488      7526.6419      4965.1129      12491.755      156655.41      42.78634       42.78634       85.57268           16004 
     85000   3617.4346      299119.08      480.50937      299354.09      299724.57      298278.57     -948.73967     -131.35076      1533.1706      7482.8446      4920.2928      12403.137      156636.58      42.784625      42.784625      85.56925           16004 
     86000   3558.0949      299723.03      486.89623      301399.36      298776.82      298992.89      2425.7376     -2162.6561      1595.2042      7360.0976      4940.4631      12300.561      156611.6       42.78235       42.78235       85.564701          16004 
     87000   3621.714       294597.9       493.29588      294497.62      293368.79      295927.3       1.2356729     -59.606864     -456.23508      7491.6968      4935.0753      12426.772      156898.98      42.808503      42.808503      85.617007          16004 
     88000   3587.1702      297093.76      499.69839      296541.18      299120.37      295619.73     -717.72137     -919.3781       3508.4346      7420.2412      4837.3876      12257.629      156736.41      42.793712      42.793712      85.587425          16004 
     89000   3609.0791      295156.99      506.09958      294687.3       295278.04      295505.63      534.97698     -4112.8611     -2202.7201      7465.561       4886.7271      12352.288      156826.77      42.801935      42.801935      85.60387           16004 
     90000   3617.2205      299839.8       512.50517      300274.05      298883.18      300362.17      601.14155      1794.9941     -3760.8469      7482.4018      4878.938       12361.34       156584.11      42.779848      42.779848      85.559695          16004 
     91000   3612.2473      299880.7       518.91094      298785.37      299567.39      301289.34     -1632.0106     -1400.3538     -502.78892      7472.1144      4981.0515      12453.166      156618.88      42.783013      42.783013      85.566027          16004 
     92000   3613.2857      301062.35      525.32267      300578.84      300937.93      301670.28      1381.7226      1153.518       518.31638      7474.2625      4897.0558      12371.318      156520.66      42.774069      42.774069      85.548137          16004 
     93000   3626.8994      301756.04      531.73431      301969.2       302207.48      301091.43     -91.622158      661.64249     -4115.443       7502.4231      4933.4739      12435.897      156468.83      42.769346      42.769346      85.538693          16004 
     94000   3583.2322      303259.93      538.14106      302937.47      304038.21      302804.1      -1011.6675     -1549.6727     -346.65988      7412.0953      4924.2618      12336.357      156309.41      42.754816      42.754816      85.509632          16004 
     95000   3565.2921      304644.59      544.55012      304366.38      304816.93      304750.45     -480.69965     -1089.0482     -964.41488      7374.9853      4951.5416      12326.527      156284.27      42.752524      42.752524      85.505048          16004 
     96000   3642.8869      302237.02      550.95342      303181.19      302132.83      301397.03      60.302825      3215.6673      1503.155       7535.494       4933.1299      12468.624      156458.71      42.768424      42.768424      85.536849          16004 
     97000   3600.4504      303365.41      557.36247      304977.85      303218.05      301900.33      150.1433       928.81128     -1348.1744      7447.712       4986.8474      12434.559      156467.49      42.769224      42.769224      85.538449          16004 
     98000   3606.292       299987.97      563.76497      299959.65      300699.17      299305.09      1913.6548      0.45049408     1114.0394      7459.7957      4891.4895      12351.285      156610.42      42.782243      42.782243      85.564487          16004 
     99000   3600.6373      294365.41      570.16652      295376.95      294833.65      292885.63     -1692.5748     -53.082908      1064.3963      7448.0986      4886.9433      12335.042      156862.47      42.805182      42.805182      85.610365          16004 
    100000   3537.4252      300096.86      576.57415      299548.66      299119.26      301622.66      792.92181     -2626.1606      1921.3186      7317.3412      4968.1518      12285.493      156517.48      42.773779      42.773779      85.547557          16004 
    101000   3585.7748      297283.2       582.97926      297968.07      296166.01      297715.53     -160.40264     -3690.1384      190.31078      7417.3548      4940.0838      12357.439      156678.8       42.788469      42.788469      85.576937          16004 
    102000   3590.6106      297959.39      589.38463      295910.32      298907.53      299060.34     -364.56448     -739.19571     -120.63202      7427.358       4937.8342      12365.192      156626.88      42.783742      42.783742      85.567484          16004 
    103000   3602.4381      298302.85      595.79316      298896.8       299049.09      296962.66     -426.05607      3141.7305      3988.5917      7451.8237      4916.6731      12368.497      156703.15      42.790685      42.790685      85.58137           16004 
    104000   3616.1092      297109.66      602.20414      296072.56      298814.05      296442.37     -844.94805      1153.3615     -1997.5868      7480.103       4855.0256      12335.129      156709.67      42.791279      42.791279      85.582559          16004 
    105000   3605.5198      299987.63      608.61181      301657.63      298605.07      299700.2      -214.89502     -1745.8189      674.95246      7458.1983      4907.7639      12365.962      156541.87      42.776001      42.776001      85.552001          16004 
    106000   3601.574       300298.77      615.02759      301122.44      299756.99      300016.87      1320.71       -2131.0417      1592.6065      7450.0364      4948.7677      12398.804      156604.62      42.781716      42.781716      85.563431          16004 
    107000   3574.5893      303482.78      621.43754      302824.51      302087.15      305536.69      496.18325      2452.7934     -2396.1356      7394.2171      4925.0162      12319.233      156331.82      42.756859      42.756859      85.513718          16004 
    108000   3639.4872      303114.78      627.84691      301774.62      302402.73      305166.99      723.55426      2239.1421     -327.40189      7528.4616      4922.1941      12450.656      156467.57      42.769232      42.769232      85.538463          16004 
    109000   3551.5466      304999.95      634.24977      306142.8       302764.09      306092.96     -351.55298     -3392.2957      1663.0752      7346.5521      4946.0905      12292.643      156295.3       42.75353       42.75353       85.507059          16004 
    110000   3589.931       301692.14      640.65297      301621.19      300809.98      302645.23     -3278.8147     -639.17695     -1143.0981      7425.9522      4976.658       12402.61       156444.59      42.767137      42.767137      85.534275          16004 
    111000   3602.26        304334.4       647.05592      304662.65      303401.95      304938.59      1878.3604      1534.6525      2603.0411      7451.4553      4835.7594      12287.215      156283.03      42.752411      42.752411      85.504822          16004 
    112000   3596.9404      303308.37      653.46047      303754.76      302253.69      303916.64      3423.618      -92.47461       2283.3928      7440.4514      5018.2458      12458.697      156458.61      42.768415      42.768415      85.53683           16004 
    113000   3599.9492      300417.8       659.86199      301329.62      300802.14      299121.62      1349.1718      303.36687     -292.1556       7446.6752      4908.5673      12355.243      156573.55      42.778886      42.778886      85.557771          16004 
    114000   3610.2593      298338.34      666.26641      297792.49      298285.85      298936.69      5588.8554      3159.4899     -820.84132      7468.0023      4953.6241      12421.626      156668.59      42.787539      42.787539      85.575078          16004 
    115000   3613.2335      297625.45      672.67131      297586.54      297896.4       297393.43      848.93695     -2172.2796     -384.34816      7474.1546      4891.3376      12365.492      156705.48      42.790898      42.790898      85.581795          16004 
    116000   3578.7861      295988.38      679.08201      295611.67      295641.55      296711.92      108.96273     -49.46721       4558.805       7402.8984      4892.4723      12295.371      156826.02      42.801867      42.801867      85.603733          16004 
    117000   3641.3035      296653.1       685.49058      296271.4       296660.01      297027.88      886.95431     -1442.7283     -3537.478       7532.2187      4876.2149      12408.434      156783.61      42.798008      42.798008      85.596017          16004 
    118000   3606.809       298834.32      691.89534      298527.24      298326.85      299648.87      2116.3323     -2033.2196     -552.65733      7460.865       4862.1302      12322.995      156639.61      42.784901      42.784901      85.569802          16004 
    119000   3580.9852      300194.46      698.30764      300467.64      300802.17      299313.57     -155.69995     -213.20637      601.41271      7407.4474      4898.0415      12305.489      156539.03      42.775741      42.775741      85.551482          16004 
    120000   3639.7342      301394.87      704.71869      300767.61      300391.05      303025.96      102.93342     -796.43374     -2735.057       7528.9726      4873.349       12402.322      156503.85      42.772537      42.772537      85.545074          16004 
    121000   3608.8249      300585.12      711.13123      299682.69      301168.94      300903.74      719.98969     -1974.0053      2560.982       7465.0351      4955.7503      12420.785      156565.99      42.778197      42.778197      85.556393          16004 
    122000   3585.6255      301711.26      717.53968      299291.68      302187.18      303654.91      281.61515      1353.7611      1155.8096      7417.0459      4780.8159      12197.862      156444.66      42.767144      42.767144      85.534288          16004 
    123000   3622.3521      303935.91      723.9476       303392.3       304581.85      303833.59     -1028.9882     -2846.2475     -1570.8348      7493.0167      4939.9812      12432.998      156422.42      42.765118      42.765118      85.530235          16004 
    124000   3587.1291      300907.83      730.3521       301608.36      298933.92      302181.21      1789.6226      2188.8033     -3549.6516      7420.1562      5008.4033      12428.559      156450.48      42.767674      42.767674      85.535348          16004 
    125000   3564.0941      304688.69      736.76193      306154.11      304513.68      303398.27     -1849.916      -202.16078      238.30055      7372.5071      5019.8766      12392.384      156311.77      42.755031      42.755031      85.510062          16004 
    126000   3653.523       301432.92      743.16715      299884.4       302027.14      302387.22     -267.75802     -757.27483     -726.6065       7557.4953      4908.3546      12465.85       156505.7       42.772706      42.772706      85.545411          16004 
    127000   3579.5624      299807.17      749.57108      300230.05      297875.91      301315.57     -322.2986      -1180.3658     -186.26796      7404.5041      4862.7621      12267.266      156479.34      42.770304      42.770304      85.540609          16004 
    128000   3627.9021      297767.35      755.97452      297709.8       298305.76      297286.5       4590.5663      123.52698     -5.8250695      7504.4972      4845.2012      12349.698      156644.77      42.785371      42.785371      85.570742          16004 
    129000   3614.2139      297594.65      762.37893      298222.98      298027.91      296533.05      2331.9492      1203.9532      925.02249      7476.1825      4900.9051      12377.088      156785.04      42.798138      42.798138      85.596275          16004 
    130000   3601.3334      294926.13      768.7868       296374.57      292521.09      295882.73     -421.97822      2657.0063     -2231.6513      7449.5385      4861.9833      12311.522      156826.1       42.801873      42.801873      85.603747          16004 
    131000   3609.3958      295273.36      775.19405      295793.67      295749.43      294277         707.80464      2906.6273     -1014.8336      7466.216       4870.1544      12336.37       156808.71      42.800291      42.800291      85.600583          16004 
    132000   3619.3924      299036.73      781.60472      298229.88      300288.35      298591.95     -447.82166     -546.68316     -1161.0785      7486.8945      4855.9664      12342.861      156644.16      42.785316      42.785316      85.570631          16004 
    133000   3620.809       298566.34      788.01117      297624.2       299035.04      299039.78      2233.2922      41.912635     -1699.1748      7489.8247      4964.0031      12453.828      156688.14      42.78932       42.78932       85.578639          16004 
    134000   3605.1975      299428.77      794.42284      300613.41      298589.89      299083.01      1121.4492     -896.98437      54.543473      7457.5317      4920.9144      12378.446      156595.76      42.780908      42.780908      85.561816          16004 
    135000   3604.4663      301235.74      800.83801      301210.64      301340.58      301156.01     -1079.196      -981.91349      2679.5783      7456.019       4906.5745      12362.594      156634.01      42.784391      42.784391      85.568782          16004 
    136000   3572.6011      297601.28      807.24537      298294.61      297744.46      296764.77      2353.6447     -1932.4052      955.31125      7390.1043      4880.4283      12270.533      156724.96      42.792671      42.792671      85.585342          16004 
    137000   3597.91        298590.7       813.65906      298168.81      298707.74      298895.55     -746.33785      755.20098      889.97879      7442.457       4854.0322      12296.489      156780.21      42.797699      42.797699      85.595398          16004 
    138000   3639.7389      294002.34      820.0631       295839.38      291646.02      294521.61     -1577.0321     -543.17078     -722.94708      7528.9823      4929.5616      12458.544      156976.63      42.815564      42.815564      85.631127          16004 
    139000   3600.4908      297349.57      826.47006      296441.87      298280.85      297326        -302.14138     -1203.6072     -194.02625      7447.7957      4861.9881      12309.784      156718.8       42.79211       42.79211       85.58422           16004 
    140000   3574.2493      298756.09      832.87309      301246.22      297059.83      297962.21     -434.02308     -886.59543      2452.6678      7393.5138      4883.5485      12277.062      156605.11      42.78176       42.78176       85.563519          16004 
    141000   3640.1502      297851.82      839.27744      299462.22      295948.89      298144.33     -2102.7372     -2677.9882     -475.1463       7529.8331      4819.7902      12349.623      156748.83      42.794843      42.794843      85.589686          16004 
    142000   3609.9946      300549.42      845.68181      298780.31      302023.53      300844.43      1191.7299      1578.0489     -100.54678      7467.4548      4831.1345      12298.589      156539.19      42.775756      42.775756      85.551512          16004 
    143000   3587.1958      302156.18      852.08489      303171.07      301666.53      301630.92     -1253.1514      370.18718     -573.88229      7420.2943      4913.7433      12334.038      156432.23      42.766011      42.766011      85.532022          16004 
    144000   3629.4198      304227.42      858.49167      304479.63      303824.23      304378.41     -932.97061     -619.25901      1678.9656      7507.6366      4989.1647      12496.801      156396.07      42.762716      42.762716      85.525431          16004 
    145000   3628.677       304719.42      864.89665      304537.67      304875.14      304745.44     -2038.0415     -579.20174      2844.0538      7506.1001      4938.9165      12445.017      156361.94      42.759605      42.759605      85.519211          16004 
    146000   3629.1516      300624.41      871.30417      302063.46      299692.49      300117.29     -2664.8613      264.8356       1560.41        7507.0819      4913.3358      12420.418      156619.92      42.783108      42.783108      85.566216          16004 
    147000   3587.1721      299632.99      877.71458      301934.33      298830.46      298134.19      82.667798      84.732155      50.391675      7420.2451      4797.1585      12217.404      156503.7       42.772523      42.772523      85.545047          16004 
    148000   3633.4422      299585.14      884.12297      298903.75      299295.96      300555.71     -131.82514      2115.7192     -549.56164      7515.9573      4897.0044      12412.962      156582.26      42.779679      42.779679      85.559359          16004 
    149000   3547.8981      299119.37      890.53606      298910.85      299005.69      299441.57      1571.3106     -297.84524     -976.55023      7339.0049      4945.3693      12284.374      156570.96      42.778649      42.778649      85.557299          16004 
    150000   3599.367       299274.83      896.95173      300178.82      298515.55      299130.13     -2683.8357     -814.4512       205.4807       7445.471       4946.4264      12391.897      156678.6       42.788451      42.788451      85.576902          16004 
    151000   3569.5014      301253.83      903.35914      302030.91      301049.7       300680.88     -3724.4275      3778.0808     -1509.0362      7383.6925      4897.374       12281.066      156487.16      42.771017      42.771017      85.542033          16004 
    152000   3596.8459      302541.79      909.77066      303151.39      301968.06      302505.93     -1256.6593     -266.83253     -439.23145      7440.256       5008.6028      12448.859      156442.18      42.766919      42.766919      85.533837          16004 
    153000   3605.4065      302731.8       916.17736      302733.21      302622.56      302839.62      2016.6456     -3336.129      -789.28879      7457.964       4982.7446      12440.709      156365.49      42.759929      42.759929      85.519857          16004 
    154000   3538.3797      300093.25      922.58224      298653.66      300976.12      300649.97     -518.51482     -712.3357       708.65942      7319.3157      4879.3027      12198.618      156552.44      42.776963      42.776963      85.553926          16004 
    155000   3593.1882      299705.95      928.98391      299142.17      300086.77      299888.92      1761.1069      1242.4872      3037.8362      7432.6899      4962.1855      12394.875      156670.76      42.787737      42.787737      85.575474          16004 
    156000   3591.8651      299781.77      935.38814      300952.79      299804.88      298587.62      2081.7864     -692.26312     -1828.5193      7429.9529      4935.266       12365.219      156607.57      42.781984      42.781984      85.563968          16004 
    157000   3562.1048      300777.4       941.78496      300750.83      299981.23      301600.15     -933.3343       1894.3083     -237.77753      7368.3922      4893.3955      12261.788      156481.51      42.770501      42.770501      85.541003          16004 
    158000   3619.9902      297137.86      948.19113      297313.12      297297.2       296803.25      1907.5225      205.05416     -1788.7139      7488.131       4878.4979      12366.629      156697.01      42.790127      42.790127      85.580254          16004 
    159000   3602.4711      297561.58      954.59307      298091.19      297881.96      296711.6       614.35782     -5282.257      -1353.4922      7451.8919      4793.9017      12245.794      156711.66      42.79146       42.79146       85.582921          16004 
    160000   3594.6862      296483.13      960.99893      295809.54      295937.23      297702.63     -1631.8396     -2064.0264      1354.2646      7435.7885      4886.5632      12322.352      156823.98      42.801681      42.801681      85.603361          16004 
    161000   3603.8222      297992.76      967.40192      296846.16      297920.46      299211.65      2528.7482      1511.5807     -3602.4189      7454.6867      4807.8114      12262.498      156716.24      42.791877      42.791877      85.583754          16004 
    162000   3609.7371      297567.87      973.80874      296296.02      297761.41      298646.17     -2326.9008     -533.22598      1178.5982      7466.9221      4868.7309      12335.653      156780.37      42.797713      42.797713      85.595427          16004 
    163000   3616.799       300067.56      980.21989      299012.13      300632.65      300557.9       5096.4354      498.41368      1311.8041      7481.5299      4980.6484      12462.178      156673.01      42.787942      42.787942      85.575884          16004 
    164000   3598.8284      304125.65      986.63004      304645.63      302302.09      305429.22     -934.10109      1650.9071     -239.14281      7444.3569      4920.2759      12364.633      156371.01      42.760432      42.760432      85.520864          16004 
    165000   3618.4436      301094.22      993.03974      302209.66      299849.41      301223.59     -1120.6883     -76.781474      3673.8605      7484.9319      4965.3218      12450.254      156567.72      42.778355      42.778355      85.556709          16004 
    166000   3598.2893      301204.61      999.44513      301193.99      299773.36      302646.47     -306.86925      2441.4733      1229.7007      7443.2418      4865.075       12308.317      156514.54      42.77351       42.77351       85.547021          16004 
    167000   3571.097       299372.28      1005.8532      300132.96      297761.06      300222.82      1665.5008      476.90393      44.099294      7386.9931      4909.2555      12296.249      156564.95      42.778102      42.778102      85.556205          16004 
    168000   3620.7936      300014.72      1012.2603      300074.56      298980.33      300989.28     -778.17903      1420.0564     -2960.7546      7489.7929      5009.5213      12499.314      156593.75      42.780725      42.780725      85.561451          16004 
    169000   3595.9151      301567.15      1018.6697      302446.58      301084.04      301170.84      2086.7963      24.813258      494.59968      7438.3305      4832.3756      12270.706      156446.83      42.767342      42.767342      85.534684          16004 
    170000   3605.1917      302782.03      1025.0716      302610.72      304006.42      301728.96      816.18799      95.494779      2925.5248      7457.5197      4987.8552      12445.375      156355.54      42.759022      42.759022      85.518044          16004 
    171000   3622.866       304982.13      1031.4754      305730.16      305141.25      304074.99      288.8507      -1328.9426      3665.8366      7494.0798      5013.2357      12507.315      156287.82      42.752848      42.752848      85.505695          16004 
    172000   3582.0265      304105.34      1037.8784      303657.25      304615.27      304043.48     -1732.564      -165.77141      1188.6294      7409.6012      4967.782       12377.383      156312.75      42.75512       42.75512       85.510241          16004 
    173000   3617.1546      300779.92      1044.2837      299405.42      301100.35      301834        -1589.4542      1658.3563      553.60832      7482.2656      4859.8732      12342.139      156587.59      42.780164      42.780164      85.560329          16004 
    174000   3569.3004      299092.93      1050.689       298916.19      300332.36      298030.22     -47.354014      69.84309       134.36089      7383.2768      4906.5858      12289.863      156541.51      42.775968      42.775968      85.551935          16004 
    175000   3602.1314      299455.46      1057.0946      299617.76      298396.24      300352.39      958.68289      45.247486      268.88382      7451.1893      5012.9274      12464.117      156679.93      42.788572      42.788572      85.577143          16004 
    176000   3574.9905      300351.5       1063.5015      298763.5       302223.73      300067.28     -998.97278      2035.0673     -1172.2885      7395.047       4930.7511      12325.798      156575.39      42.779054      42.779054      85.558107          16004 
    177000   3535.9419      298586.51      1069.9103      299193.46      297809.13      298756.95     -590.64258      387.43568     -163.06797      7314.2729      4879.0769      12193.35       156558.07      42.777476      42.777476      85.554951          16004 
    178000   3611.6498      296813.3       1076.3273      298265.09      294337.54      297837.27      2914.5682      2289.8323     -440.33612      7470.8785      4872.1986      12343.077      156774.98      42.797223      42.797223      85.594445          16004 
    179000   3578.3901      299729.79      1082.7396      299692.21      299921.78      299575.39      1444.0123      8.7895276     -278.5047       7402.0791      4890.3417      12292.421      156589.34      42.780324      42.780324      85.560648          16004 
    180000   3626.0325      298420.03      1089.1477      298130.46      298614.4       298515.21      2210.8747      555.00335     -846.44436      7500.6299      4844.2583      12344.888      156698.23      42.790238      42.790238      85.580476          16004 
    181000   3555.624       298358.81      1095.5553      300044.81      297880.79      297150.84      1180.9989      2160.0378     -2288.702       7354.9864      4870.1567      12225.143      156650.52      42.785894      42.785894      85.571789          16004 
    182000   3602.7913      293780.76      1101.9597      294728.69      293375.03      293238.57     -1790.2751      1185.56       -955.4224       7452.5543      4884.1663      12336.721      156996.3       42.817353      42.817353      85.634705          16004 
    183000   3573.3712      297327.13      1108.3701      295836.16      297717.61      298427.61      1144.5219      3785.6311     -3226.8293      7391.6974      4808.5695      12200.267      156653.49      42.786165      42.786165      85.57233           16004 
    184000   3623.812       300800.21      1114.7705      301353.02      300716.66      300330.94      834.68017      913.74251      42.923561      7496.0367      4874.3782      12370.415      156583.39      42.779782      42.779782      85.559564          16004 
    185000   3567.0755      302162.22      1121.1735      304792.54      301907.13      299786.98     -1390.5119      1686.0522     -1415.7781      7378.6745      4902.9619      12281.636      156447.15      42.767371      42.767371      85.534742          16004 
    186000   3614.4657      298198.66      1127.5766      298562.2       298706.2       297327.57      2450.4936      565.10715     -1317.0271      7476.7033      4949.83        12426.533      156671.76      42.787828      42.787828      85.575656          16004 
    187000   3603.0789      300731.53      1133.9783      302395.14      298781.02      301018.43     -516.49931      60.692908     -1659.2977      7453.1492      4867.654       12320.803      156497.55      42.771963      42.771963      85.543927          16004 
    188000   3625.6069      299139.95      1140.3823      297964.71      299618.92      299836.22      1792.162       200.84225     -2780.9698      7499.7494      4937.8965      12437.646      156659         42.786666      42.786666      85.573333          16004 
    189000   3585.1402      299841.22      1146.7866      299694.69      300347.44      299481.52     -2682.6346     -1675.3207      73.961894      7416.042       4893.3588      12309.401      156528.13      42.774749      42.774749      85.549497          16004 
    190000   3618.0542      298309.77      1153.1891      298762.23      298189.59      297977.49      3107.3753      96.177376      2493.7622      7484.1264      4932.8759      12417.002      156716.9       42.791937      42.791937      85.583873          16004 
    191000   3578.1954      299764.38      1159.5933      299725.22      299946.06      299621.86     -1524.4981      2899.1712      2105.7783      7401.6764      4885.3391      12287.015      156633.58      42.784352      42.784352      85.568705          16004 
    192000   3586.3499      299441.39      1166.0026      300151.73      298849.99      299322.45     -1634.9841     -2119.1597     -2365.5369      7418.5444      4930.2096      12348.754      156590.21      42.780403      42.780403      85.560807          16004 
    193000   3606.244       298346.08      1172.4145      298333.35      298838.3       297866.6       210.45602     -4544.1992      1941.1013      7459.6964      4907.4261      12367.123      156671.66      42.787819      42.787819      85.575638          16004 
    194000   3599.5018      296367.77      1178.8248      296383.49      296090.28      296629.54      2381.8322      1891.0747     -614.72704      7445.7498      4880.2713      12326.021      156789.55      42.798549      42.798549      85.597097          16004 
    195000   3592.9363      294437.99      1185.2308      294816.42      293601.8       294895.76     -497.64181      408.31241      2300.6161      7432.1687      4912.4189      12344.588      156906.26      42.809165      42.809165      85.618329          16004 
    196000   3595.1339      296566.02      1191.6383      295245.67      296800.24      297652.16      3493.9807     -1718.8911     -879.05809      7436.7147      4888.292       12325.007      156730.62      42.793186      42.793186      85.586372          16004 
    197000   3651.0023      298516.24      1198.0468      297968         298366.43      299214.28     -150.81072      1257.5855      1014.3835      7552.2812      4846.2697      12398.551      156689.41      42.789435      42.789435      85.57887           16004 
    198000   3620.6425      300465.44      1204.4564      301645.49      299260.64      300490.18      1137.2526     -2161.5302     -1752.8023      7489.4803      4974.7948      12464.275      156615.42      42.782698      42.782698      85.565397          16004 
    199000   3600.998       302227.1       1210.8607      301522.62      301753.5       303405.17     -222.69866      416.88137     -486.86201      7448.8448      4891.9901      12340.835      156476.2       42.770018      42.770018      85.540035          16004 
    200000   3600.657       300149.48      1217.2685      300952.4       300468.19      299027.83     -1132.4749     -164.83567      355.29946      7448.1394      5047.2434      12495.383      156654.26      42.786235      42.786235      85.57247           16004 
    201000   3588.6112      297821.37      1223.6708      298991.5       298591.04      295881.57     -2229.7548     -2104.0857     -1383.1164      7423.222       4950.413       12373.635      156650.61      42.785903      42.785903      85.571806          16004 
    202000   3593.7491      296494.86      1230.0758      298652.87      296550.92      294280.79     -1005.8072      1245.5786     -1796.6763      7433.85        4861.1707      12295.021      156770.78      42.79684       42.79684       85.59368           16004 
    203000   3590.382       290167.46      1236.4796      290621.57      289913.08      289967.72     -2212.4072     -1573.7909     -213.11522      7426.8851      4919.5048      12346.39       157180.48      42.83409       42.83409       85.668179          16004 
    204000   3565.9552      297146.21      1242.8793      298107.98      295651.45      297679.19      605.53944      1753.1162      1803.5634      7376.3569      4902.2816      12278.639      156738.28      42.793883      42.793883      85.587766          16004 
    205000   3588.8831      299807.71      1249.2828      298487.04      299177.47      301758.62     -1776.9747     -765.80817     -2553.4609      7423.7844      4842.2153      12266          156578.85      42.779369      42.779369      85.558737          16004 
    206000   3604.8003      298840.4       1255.6879      298776.25      298677.74      299067.21      1210.9136     -2319.3718     -1089.451       7456.71        4966.9759      12423.686      156664.04      42.787125      42.787125      85.57425           16004 
    207000   3594.4978      301032.93      1262.0964      298481.24      301917.08      302700.47     -1349.0943     -2900.2213      2713.2197      7435.3988      4836.9674      12272.366      156443.09      42.767001      42.767001      85.534002          16004 
    208000   3598.8793      302664.37      1268.506       301400.6       305182.04      301410.47     -2046.2185      1089.3601      2046.8819      7444.4622      4977.714       12422.176      156482.94      42.770632      42.770632      85.541265          16004 
    209000   3614.2746      303802.53      1274.9116      303973.05      302901.54      304533.01     -540.98081     -3665.0017      720.04437      7476.3081      5005.2509      12481.559      156442.94      42.766987      42.766987      85.533975          16004 
    210000   3598.8351      307314.37      1281.3169      308496.37      305996.13      307450.62      1090.9054      725.29113      2752.3046      7444.3707      4942.6278      12386.999      156127.51      42.738224      42.738224      85.476449          16004 
    211000   3590.9537      304599.72      1287.727       304725.71      304011.8       305061.65     -188.36303     -4313.3333      1554.4005      7428.0677      4939.054       12367.122      156258.4       42.750164      42.750164      85.500329          16004 
    212000   3646.5832      300643.84      1294.1369      301583.67      301488.05      298859.79     -2042.4931     -667.98239     -721.37206      7543.1401      4940.4871      12483.627      156630.28      42.784052      42.784052      85.568104          16004 
    213000   3607.1573      301865.95      1300.54        301326.55      303283.92      300987.39      381.95884     -2968.2648      1322.4866      7461.5856      4919.7851      12381.371      156513.49      42.773415      42.773415      85.54683           16004 
    214000   3598.3518      299147.27      1306.943       298232.94      298616.32      300592.55      1389.3645      1540.1855     -1123.4166      7443.371       4929.5183      12372.889      156653.17      42.786135      42.786135      85.572271          16004 
    215000   3604.1184      299176.47      1313.3456      298234.67      298871.54      300423.19      2836.5316      285.20233     -1972.0649      7455.2996      4835.6559      12290.955      156586.02      42.780021      42.780021      85.560042          16004 
    216000   3616.9496      298486.86      1319.7548      298167.26      298107.52      299185.8      -1507.1669     -2358.1962     -1565.4513      7481.8415      4922.6008      12404.442      156757.51      42.795633      42.795633      85.591267          16004 
    217000   3583.2622      297225.79      1326.1597      297537.8       297299.31      296840.27      22.213511     -2126.1482      1310.7407      7412.1574      4867.5873      12279.745      156713.05      42.791587      42.791587      85.583174          16004 
    218000   3589.9619      294692.58      1332.5658      295551.59      294216.63      294309.53      1156.992       51.854328      1794.2784      7426.0161      4996.8465      12422.863      156876.28      42.806438      42.806438      85.612877          16004 
    219000   3567.2845      298023.11      1338.9688      298051.53      299030.13      296987.66      435.23554     -2187.6716      646.80128      7379.1067      4976.9284      12356.035      156672.22      42.78787       42.78787       85.57574           16004 
    220000   3625.8146      297824.71      1345.3735      296527.7       299877.41      297069.03     -552.0984      -2407.5326      108.38478      7500.1792      4814.9033      12315.083      156710.58      42.791362      42.791362      85.582723          16004 
    221000   3600.9876      299487.57      1351.7828      298935.45      300587.4       298939.85      361.25991     -2397.6176     -298.14906      7448.8232      4903.0588      12351.882      156643.53      42.785258      42.785258      85.570517          16004 
    222000   3619.9724      302687.05      1358.1981      302397.61      302088.46      303575.09      1712.244       4913.2306     -3633.1206      7488.0943      4917.716       12405.81       156548.89      42.776639      42.776639      85.553279          16004 
    223000   3577.9462      302610.31      1364.6019      303890.61      302496.97      301443.35      3251.7332     -438.57242     -1490.6919      7401.1609      4873.4094      12274.57       156388.21      42.762         42.762         85.524             16004 
    224000   3624.7146      300892.81      1371.0083      300524.53      300275.5       301878.39     -627.61828      1919.3209     -1202.2879      7497.9037      4940.0035      12437.907      156517.39      42.77377       42.77377       85.547541          16004 
    225000   3575.8095      302453.02      1377.4163      302268.06      302249.97      302841.04      2602.2127      2447.9461     -3120.8565      7396.741       4915.9623      12312.703      156433.35      42.766113      42.766113      85.532226          16004 
    226000   3621.3107      301427.97      1383.8225      302459.72      300102.35      301721.83      3701.1937      784.29105      3567.8393      7490.8627      4941.2331      12432.096      156538.07      42.775654      42.775654      85.551308          16004 
    227000   3579.2362      298964.5       1390.2302      297732.04      300563.75      298597.7      -521.03037     -1252.6688     -575.73915      7403.8294      4855.1043      12258.934      156456.33      42.768208      42.768208      85.536415          16004 
    228000   3599.9185      298545.73      1396.6331      298489.88      296377.05      300770.25      119.42596      3119.4519      1117.8478      7446.6117      4903.8401      12350.452      156687.09      42.789224      42.789224      85.578447          16004 
    229000   3556.7012      295897.25      1403.0347      293407.96      298119.3       296164.49      2605.2881     -1575.8443     -911.81715      7357.2147      4934.9467      12292.161      156661.44      42.786889      42.786889      85.573777          16004 
    230000   3608.0441      294474.1       1409.4379      294507.38      293786.75      295128.16      2077.0324      575.95701      47.055178      7463.4201      4906.4778      12369.898      156796.49      42.79918       42.79918       85.598359          16004 
    231000   3586.6232      298664.73      1415.8476      298760.3       298597.26      298636.63      4631.6925      806.50857      1737.8958      7419.1097      4913.7459      12332.856      156638.56      42.784806      42.784806      85.569611          16004 
    232000   3627.9972      300820.35      1422.251       301328.87      299985.07      301147.12     -1460.5378      69.81547       491.10807      7504.694       5031.7959      12536.49       156642.24      42.785141      42.785141      85.570282          16004 
    233000   3579.8626      300276.55      1428.6573      300317.24      300741.39      299771.03     -1213.9654      1774.9616      1150.4809      7405.1251      4916.5264      12321.652      156477.35      42.770123      42.770123      85.540246          16004 
    234000   3625.9691      300380.85      1435.0598      300242.15      300376.56      300523.84     -856.43429     -657.84129     -1092.6441      7500.4988      4871.5184      12372.017      156590.05      42.780388      42.780388      85.560776          16004 
    235000   3593.1375      300674.69      1441.4654      300525.62      300452.65      301045.81     -986.54309      108.15665      2424.6674      7432.5849      4984.3932      12416.978      156580.12      42.779484      42.779484      85.558967          16004 
    236000   3564.5652      301967.03      1447.8712      300218.21      304718.23      300964.67      1129.8891      3204.9267      1337.1728      7373.4816      4985.7418      12359.223      156474.14      42.76983       42.76983       85.53966           16004 
    237000   3599.2919      300978.3       1454.2805      302609.76      299422.01      300903.15      1489.6601      1835.2882     -3160.9563      7445.3157      4927.8059      12373.122      156558.18      42.777486      42.777486      85.554973          16004 
    238000   3604.6421      304336.32      1460.688       303684.62      304886.8       304437.54     -277.65212      51.53175      -257.69391      7456.3828      4946.1099      12402.493      156373.86      42.760691      42.760691      85.521383          16004 
    239000   3582.871       305035.57      1467.0946      305437.02      303759.15      305910.52      1051.3995     -601.02905      1636.9241      7411.3483      4995.0169      12406.365      156391.4       42.76229       42.76229       85.52458           16004 
    240000   3594.0967      300573.6       1473.5033      299746.18      300688.71      301285.91      2257.8309      2934.9219      2375.3701      7434.569       4925.3348      12359.904      156572.94      42.77883       42.77883       85.55766           16004 
    241000   3598.285       302290.7       1479.9108      302246.34      301838.07      302787.69      589.78517      1531.3847     -2655.2341      7443.2327      4932.7749      12376.008      156414.3       42.764377      42.764377      85.528754          16004 
    242000   3610.6133      302451.23      1486.3174      302889.22      300962.35      303502.14     -235.63047     -144.04956     -1341.02        7468.7345      4938.8895      12407.624      156454.62      42.768052      42.768052      85.536103          16004 
    243000   3555.6839      301185.75      1492.7234      300584.46      301834.49      301138.29      310.33038      1175.4754      341.29892      7355.1104      4956.4324      12311.543      156508.85      42.772992      42.772992      85.545985          16004 
    244000   3614.5489      296898.12      1499.1266      295914.96      297887.96      296891.43     -2192.3917     -143.56592      374.65715      7476.8754      4923.8316      12400.707      156826.87      42.801944      42.801944      85.603888          16004 
    245000   3608.8762      294008.88      1505.5327      294631.18      294509.22      292886.26      254.01347      228.46765     -1336.0335      7465.1412      4834.9867      12300.128      156895.53      42.808189      42.808189      85.616378          16004 
    246000   3585.1341      296548.93      1511.9406      297053.37      294686.34      297907.07      263.53104     -1193.1862      2160.8658      7416.0295      4861.9455      12277.975      156723.79      42.792564      42.792564      85.585128          16004 
    247000   3623.6845      297422.44      1518.3431      296778.74      298460.86      297027.72      1385.7026     -3725.2238      1521.5597      7495.7729      4864.852       12360.625      156755.94      42.79549       42.79549       85.59098           16004 
    248000   3592.4771      295114.1       1524.7451      294379.06      296144.62      294818.64     -820.19103      169.97603     -1056.6041      7431.2189      4834.5901      12265.809      156829.03      42.80214       42.80214       85.60428           16004 
    249000   3587.1756      296958.92      1531.1466      297314.71      298091.76      295470.29     -4006.3793      1453.5878     -806.67566      7420.2524      4852.242       12272.494      156671.46      42.787801      42.787801      85.575602          16004 
    250000   3617.3031      300126.29      1537.5514      300784.56      297614.57      301979.74     -283.0516       400.91718      2333.042       7482.5727      4950.419       12432.992      156593.18      42.780674      42.780674      85.561348          16004 
    251000   3575.6612      303555.18      1543.9416      304545.88      301799.09      304320.59     -2231.7516     -1188.5523      91.210469      7396.4344      4970.4995      12366.934      156401.78      42.763236      42.763236      85.526472          16004 
    252000   3629.7445      302264.81      1550.3458      301627.42      303928.63      301238.4      -772.71856     -2128.5253      663.07562      7508.3083      4917.6658      12425.974      156431.51      42.765945      42.765945      85.531891          16004 
    253000   3624.0741      302431.07      1556.7454      300135.46      304160.42      302997.34     -2282.7866      719.85353      2906.4143      7496.5789      4972.1995      12468.778      156514.94      42.773547      42.773547      85.547095          16004 
    254000   3569.9016      298960.15      1563.1522      297530.99      299987.57      299361.87     -65.940161      2830.9447     -2017.4883      7384.5203      5017.5628      12402.083      156638.37      42.784788      42.784788      85.569576          16004 
    255000   3564.9165      298400         1569.5558      297728.7       299050.3       298421        -1575.9314     -235.13031     -2373.9647      7374.2084      4852.795       12227.003      156625.92      42.783654      42.783654      85.567309          16004 
    256000   3580.7832      297524.58      1575.9589      299773.09      296028         296772.65      1390.348      -3978.4806     -1119.4058      7407.0293      4936.5404      12343.57       156749.46      42.7949        42.7949        85.589801          16004 
    257000   3602.4641      297824.54      1582.3633      298032.55      297743.61      297697.45      701.44468      2539.8588     -954.48896      7451.8774      4845.1587      12297.036      156658.14      42.786588      42.786588      85.573176          16004 
    258000   3596.9824      293606.94      1588.7691      293120.01      293622.92      294077.9      -1320.8395     -3034.3777     -2376.0859      7440.5383      4856.6665      12297.205      156974.02      42.815327      42.815327      85.630653          16004 
    259000   3565.3224      292534.03      1595.1737      291733.77      292009.4       293858.91      1113.934       126.61322     -2893.9882      7375.0481      4848.0336      12223.082      157000.41      42.817726      42.817726      85.635451          16004 
    260000   3585.1638      292880.65      1601.5802      292124.35      294129.47      292388.14      727.26839      2333.4796     -226.5129       7416.0908      4909.1829      12325.274      156955.97      42.813686      42.813686      85.627371          16004 
    261000   3610.7403      297460.22      1607.9861      297259.93      296385.46      298735.28     -2178.6586     -1750.0337      274.65962      7468.9971      4930.4601      12399.457      156745.82      42.794569      42.794569      85.589138          16004 
    262000   3587.6132      300530.6       1614.3889      300217.36      301153.6       300220.83      1762.4986     -200.85182      1617.7534      7421.1576      4881.3273      12302.485      156512.64      42.773338      42.773338      85.546676          16004 
    263000   3657.9507      299321.5       1620.7964      298809.11      300990.3       298165.09      448.41688     -1448.0903     -477.17905      7566.6542      4871.5648      12438.219      156668.73      42.787552      42.787552      85.575104          16004 
    264000   3570.4829      302726.27      1627.2035      303618.61      303063.08      301497.11     -157.85427      3626.4298      1754.815       7385.7229      4975.0828      12360.806      156438.12      42.766549      42.766549      85.533097          16004 
    265000   3580.9007      298423.38      1633.6161      299044.04      298901.95      297324.15      569.48928      1837.1606     -355.82693      7407.2726      4962.6258      12369.898      156591.3       42.780502      42.780502      85.561004          16004 
    266000   3599.0647      301968.3       1640.0227      302762.58      300584.91      302557.41     -139.57132      5807.8784      2020.8252      7444.8457      4917.3918      12362.237      156480.86      42.770442      42.770442      85.540884          16004 
    267000   3636.0468      300548.14      1646.4285      300554.01      300154.82      300935.59      805.6225      -1526.3034     -557.89374      7521.345       4923.4139      12444.759      156587.84      42.780187      42.780187      85.560373          16004 
    268000   3625.7376      301685.8       1652.8373      303238.24      301037.48      300781.67      4404.3078     -95.181878      440.88141      7500.0198      4965.8365      12465.856      156536.91      42.775549      42.775549      85.551097          16004 
    269000   3572.077       302475.91      1659.2468      302103.42      303164.01      302160.31      1634.7744     -399.86493     -685.29571      7389.0203      4986.712       12375.732      156490.1       42.771284      42.771284      85.542569          16004 
    270000   3641.3504      301091.72      1665.653       301814.19      301185.94      300275.01      2774.0267      2224.1098     -3913.949       7532.3156      4952.5141      12484.83       156603.7       42.781631      42.781631      85.563263          16004 
    271000   3611.5629      299821.07      1672.0532      301185.22      299847.12      298430.86      280.67097     -311.776       -730.7065       7470.6987      4883.7866      12354.485      156629.07      42.783941      42.783941      85.567882          16004 
    272000   3563.5789      296760.52      1678.4539      296861.88      296073.04      297346.65     -802.44764      1487.7533      1792.7407      7371.4415      4915.0234      12286.465      156775.05      42.797229      42.797229      85.594458          16004 
    273000   3552.8547      296325.93      1684.8582      296169.7       295932.97      296875.12      2517.004       1237.569      -2485.5678      7349.258       4821.7453      12171.003      156738.72      42.793923      42.793923      85.587847          16004 
    274000   3600.8752      293941.27      1691.2632      294486.34      295251.51      292085.96     -1250.0602     -1091.5588      1863.6595      7448.5908      4915.4874      12364.078      156981.48      42.816005      42.816005      85.63201           16004 
    275000   3595.9999      295467.42      1697.6678      296591.88      296993.46      292816.9      -669.27674      184.55097      490.03141      7438.506       4829.0433      12267.549      156801.92      42.799674      42.799674      85.599348          16004 
    276000   3610.1964      298488.71      1704.0779      300371.83      295952.69      299141.62      1318.6072      3002.7838      776.91927      7467.872       4975.176       12443.048      156754.38      42.795348      42.795348      85.590696          16004 
    277000   3590.242       298942.7       1710.4836      297987.14      297561.6       301279.37     -1794.8787     -382.01046      469.8809       7426.5955      4798.4531      12225.049      156614.64      42.782628      42.782628      85.565255          16004 
    278000   3601.735       297191.47      1716.8927      297406.94      296770.45      297397.01      710.5363       1177.3329     -152.25881      7450.3694      4937.3866      12387.756      156703.54      42.790721      42.790721      85.581443          16004 
    279000   3549.2003      295330.48      1723.2988      294742.49      293267.51      297981.45      609.68566      2086.9842      2915.8209      7341.6986      4859.4101      12201.109      156852.07      42.804236      42.804236      85.608473          16004 
    280000   3586.7113      296515.34      1729.7063      294424.3       297471         297650.72     -583.93084      1364.1853      2750.3039      7419.292       4826.2237      12245.516      156758.84      42.795754      42.795754      85.591508          16004 
    281000   3596.3838      297757.24      1736.1133      298925.17      297760.16      296586.4      -395.1599      -2437.2887      1720.422       7439.3         4842.2226      12281.523      156646         42.785483      42.785483      85.570966          16004 
    282000   3637.6246      302332.4       1742.5211      305215.1       300876.11      300906        -512.18879      39.757985     -51.483239      7524.6087      4872.2428      12396.852      156545.63      42.776343      42.776343      85.552686          16004 
    283000   3595.3207      301404.55      1748.9343      300736.08      302006.65      301470.92     -67.0418       -2149.8894     -2777.9796      7437.1011      4911.9418      12349.043      156566.52      42.778245      42.778245      85.556491          16004 
    284000   3610.3551      300556.26      1755.3395      300073.32      301420.03      300175.42     -96.663557      2390.7952      3210.2307      7468.2004      4960.5914      12428.792      156596.01      42.780931      42.780931      85.561863          16004 
    285000   3572.0562      300173.87      1761.7519      301199.4       299529.5       299792.73     -680.02199     -103.48472      45.469145      7388.9772      4926.2129      12315.19       156531.71      42.775074      42.775074      85.550149          16004 
    286000   3613.0123      298985.95      1768.1564      297863.89      298954.62      300139.32      1502.9579     -681.68074     -2074.0611      7473.6969      4819.7252      12293.422      156582.95      42.779742      42.779742      85.559484          16004 
[...]
   3930000   3602.559       295389.01      6681.4086      293237.04      292637.63      300292.38      70.070238     -2631.7639      1025.2262      7452.0739      11421.457      18873.531      159913         42.97104       42.97104       86.602825          16004 
   3931000   3604.7027      296434.24      6688.6121      294272.81      292617.13      302412.78      121.53575     -5005.2314      1847.2034      7456.5082      11412.396      18868.905      159926.84      42.972279      42.972279      86.605323          16004 
   3932000   3641.0676      300738.07      6695.8054      296491.79      297273.82      308448.59      536.70593      1009.955      -3313.315       7531.7307      11369.404      18901.134      159750.04      42.956438      42.956438      86.573396          16004 
   3933000   3605.2839      300017.3       6703.007       295728.06      297175.25      307148.6       852.59116      1441.0458      2781.6444      7457.7103      11463.325      18921.035      159642.69      42.946814      42.946814      86.554001          16004 
   3934000   3597.5783      299150.14      6710.2115      295074.82      298858.09      303517.5      -381.52199     -79.626133      2171.01        7441.771       11460.069      18901.84       159742.16      42.955732      42.955732      86.571973          16004 
   3935000   3591.5944      296924.61      6717.4193      294471.32      293045.29      303257.2      -2348.9764     -3684.9657     -1544.4687      7429.3929      11447.654      18877.047      159874.2       42.967564      42.967564      86.59582           16004 
   3936000   3625.4128      300195.7       6724.6383      300525.96      294494.66      305566.47     -1901.675      -1896.3047     -3057.9639      7499.3481      11410.964      18910.312      159696.54      42.951642      42.951642      86.56373           16004 
   3937000   3601.2791      297852         6731.8364      296507.52      293207.45      303841.03      4416.9176      3787.4603     -2856.2297      7449.4263      11436.179      18885.605      159826         42.963245      42.963245      86.587115          16004 
   3938000   3583.906       300817.55      6739.0142      295319.49      301106.23      306026.93      3793.3999     -3246.8776     -3829.3166      7413.4892      11501.876      18915.365      159669.49      42.949217      42.949217      86.558844          16004 
   3939000   3573.965       304364.32      6746.1916      302170.9       303890.59      307031.48      271.94223      4160.7288      2195.1864      7392.9256      11540.827      18933.752      159569.11      42.940214      42.940214      86.540699          16004 
   3940000   3564.2555      303673.16      6753.3845      302769.95      299533.53      308716.01      596.07423     -1298.7132      118.3986       7372.8411      11577.97       18950.811      159471.75      42.931479      42.931479      86.523095          16004 
   3941000   3611.5874      302459.41      6760.5886      296994.53      300137.8       310245.9      -989.75821     -4193.5276      842.26652      7470.7496      11439.571      18910.321      159680.35      42.950191      42.950191      86.560806          16004 
   3942000   3609.0586      303730.66      6767.7943      300507.74      301348.26      309335.97      716.78159      762.34273     -1688.7166      7465.5185      11517.259      18982.778      159288.24      42.915006      42.915006      86.489895          16004 
   3943000   3583.6862      303065.35      6774.9956      300505.21      299581.94      309108.91      1006.5763      571.57291     -726.02525      7413.0344      11535.36       18948.394      159463.94      42.930779      42.930779      86.521684          16004 
   3944000   3620.3403      298446.75      6782.2048      297394.05      296670.23      301275.97      903.0505       471.57334     -3211.6237      7488.8553      11381.99       18870.845      159872.16      42.967381      42.967381      86.595452          16004 
   3945000   3594.6519      300808.54      6789.4041      297862.63      299352.1       305210.89      2752.1447      2796.2086      2399.5505      7435.7176      11442.783      18878.5        159829.38      42.963548      42.963548      86.587726          16004 
   3946000   3618.0513      294595.21      6796.6176      291927.15      292835.44      299023.03      47.855749      1521.6711     -1069.1566      7484.1203      11365.472      18849.593      159982.76      42.977287      42.977287      86.615416          16004 
   3947000   3586.2915      297237.3       6803.8308      294759.18      293336.42      303616.3       3414.6302     -1477.3404      167.96484      7418.4237      11447.213      18865.637      159900.46      42.969917      42.969917      86.600561          16004 
   3948000   3566.8874      295727.5       6811.0394      294118.8       291925.1       301138.6       1307.6784      1203.9161      1828.1846      7378.2852      11483.707      18861.993      159919.72      42.971641      42.971641      86.604037          16004 
   3949000   3594.8913      297536.57      6818.237       292206.53      296216.8       304186.38     -283.46333     -2075.4714      293.0012       7436.2128      11431.349      18867.562      159890.19      42.968996      42.968996      86.598706          16004 
   3950000   3626.263       299013.84      6825.4509      293599.09      298623.19      304819.23      3088.347      -1678.258       1351.8898      7501.1068      11371.827      18872.934      159859.69      42.966263      42.966263      86.593198          16004 
   3951000   3605.3303      297504.87      6832.6534      296860.28      291921.3       303733.02      1295.1238     -354.56081     -1231.9078      7457.8063      11412.185      18869.991      159867.54      42.966967      42.966967      86.594616          16004 
   3952000   3613.3063      301179.96      6839.8648      299765.12      300884.7       302890.06     -1159.3745      2702.8116      1012.8553      7474.305       11449.007      18923.312      159582.63      42.941427      42.941427      86.543144          16004 
   3953000   3574.0823      297875.48      6847.0643      299184.66      294700.1       299741.69     -336.01055      1825.9012     -2585.1041      7393.1682      11473.444      18866.612      159884.21      42.968461      42.968461      86.597627          16004 
   3954000   3619.7858      295568.74      6854.2617      291695.86      291981.25      303029.1       1422.7242     -9.2483444      1252.9046      7487.7083      11396.988      18884.696      159779.88      42.959113      42.959113      86.578787          16004 
   3955000   3590.5225      297042.83      6861.4768      294463.19      296207.06      300458.23     -1641.3618      733.0416       2945.9624      7427.1757      11462.35       18889.525      159754.95      42.956878      42.956878      86.574284          16004 
   3956000   3562.1656      296469.25      6868.6944      293691.79      296685.3       299030.67      2621.1856      667.62011     -2532.3713      7368.5179      11497.346      18865.864      159877.43      42.967853      42.967853      86.596403          16004 
   3957000   3611.2248      296760.02      6875.9083      296513.24      290304.6       303462.24     -2512.8239     -1302.384      -15.537778      7469.9993      11379.503      18849.502      159962.35      42.975459      42.975459      86.611731          16004 
   3958000   3591.7668      298492.79      6883.1167      293956.85      299168.29      302353.24      1584.1619     -1114.0729     -3964.0741      7429.7496      11440.679      18870.428      159848.34      42.965247      42.965247      86.59115           16004 
   3959000   3570.7746      298994.36      6890.3244      299008.57      294460.55      303513.96     -149.2129       4040.4299     -1642.4362      7386.3262      11510.348      18896.674      159708.04      42.952673      42.952673      86.565809          16004 
   3960000   3605.247       303893.04      6897.5373      304384.45      299381.7       307912.98      182.58806     -1789.1356      682.56585      7457.634       11476.615      18934.249      159504.64      42.93443       42.93443       86.529043          16004 
   3961000   3604.5182      295955.11      6904.7463      291879.32      295021.73      300964.3      -1912.2222     -1156.9988     -1767.3577      7456.1264      11398.35       18854.476      159925.79      42.972185      42.972185      86.605133          16004 
   3962000   3618.0102      304307.84      6911.9586      303662.25      297890.95      311370.31      2165.8647      1598.9407      336.49016      7484.0354      11454.907      18938.942      159471.86      42.931489      42.931489      86.523116          16004 
   3963000   3558.7266      305057.54      6919.1767      300680.73      302532.04      311959.86     -829.23346     -4248.7644      2921.0517      7361.4043      11585.477      18946.882      159429.08      42.92765       42.92765       86.515377          16004 
   3964000   3601.0225      302684.6       6926.3792      300067.3       301490.9       306495.6      -593.58224      699.08023     -723.95149      7448.8954      11497.624      18946.52       159431.74      42.927889      42.927889      86.515859          16004 
   3965000   3586.0804      306859.68      6933.5751      304644.5       302712.71      313221.83      708.3523       882.37472     -427.35902      7417.987       11528.676      18946.663      159432.48      42.927956      42.927956      86.515994          16004 
   3966000   3583.5844      303665.08      6940.7914      303615.62      299271.75      308107.86      1805.1392     -4896.3482     -724.08447      7412.8239      11500.024      18912.848      159613.31      42.944179      42.944179      86.54869           16004 
   3967000   3585.9374      299209.74      6948.0041      295877.37      293710.38      308041.46     -3561.6031      1293.2154     -798.43723      7417.6911      11447.285      18864.976      159863.75      42.966628      42.966628      86.593933          16004 
   3968000   3576.148       297112.93      6955.2158      291572.73      298739.04      301027.04     -1151.784      -825.60266      306.08569      7397.4413      11477.541      18874.983      159806.04      42.961457      42.961457      86.583511          16004 
   3969000   3562.6261      299025.6       6962.4189      298475.67      296236.01      302365.13      43.209408      1831.3009      1744.3774      7369.4705      11501.647      18871.117      159825.84      42.963231      42.963231      86.587087          16004 
   3970000   3574.7939      296784.38      6969.6231      293371.5       295249.35      301732.28     -628.58582     -1165.1199      1938.4781      7394.6403      11470.297      18864.937      159857.21      42.966042      42.966042      86.592752          16004 
   3971000   3578.5386      299708.53      6976.827       297216.15      298099.62      303809.83      847.51346      2767.824      -1405.4687      7402.3865      11494.369      18896.756      159684.36      42.95055       42.95055       86.56153           16004 
   3972000   3589.3768      297744.65      6984.0402      293335.75      296129.17      303769.03     -3035.4205      689.2444      -636.88316      7424.8057      11437.431      18862.236      159870.68      42.967248      42.967248      86.595183          16004 
   3973000   3570.3         295392.04      6991.2435      293784.46      291543.14      300848.53      228.91269      1886.3026      1911.9         7385.3445      11449.134      18834.478      160016.88      42.980342      42.980342      86.621572          16004 
   3974000   3588.7928      300688.18      6998.4544      298267.75      294572.68      309224.1       3062.1387      702.85551      72.263155      7423.5976      11457.025      18880.623      159765.36      42.957811      42.957811      86.576163          16004 
   3975000   3552.9446      303412.05      7005.66        298501.26      303474.99      308259.9      -166.13787      2331.7201     -585.48726      7349.4439      11570.083      18919.527      159555.58      42.939         42.939         86.538253          16004 
   3976000   3581.2031      304416.46      7012.8631      300768.29      301321.9       311159.19      946.09128      1654.7311     -1426.0296      7407.898       11526.495      18934.393      159470.9       42.931403      42.931403      86.522942          16004 
   3977000   3589.8652      301776.05      7020.0743      295888.47      298367.76      311071.92     -2121.8566      3028.6927      4419.9907      7425.8161      11453.885      18879.701      159759.52      42.957288      42.957288      86.575109          16004 
   3978000   3559.6595      302271.18      7027.2906      298440.78      298928.61      309444.14     -2009.32       -43.614146     -6770.76        7363.334       11510.922      18874.256      159786.14      42.959674      42.959674      86.579918          16004 
   3979000   3558.0903      298407.1       7034.4927      296349.01      294524.1       304348.19     -646.23111     -1130.4269      870.06167      7360.088       11472.203      18832.291      160008.56      42.979598      42.979598      86.620072          16004 
   3980000   3512.8904      297778.35      7041.6919      293055.43      298463.32      301816.3       1333.7041      2534.2213      170.66619      7266.5898      11614.345      18880.935      159747.05      42.956169      42.956169      86.572855          16004 
   3981000   3615.8488      301064.1       7048.8939      296705.99      301529.01      304957.31      841.56182     -3022.3626      3292.6964      7479.5644      11403.79       18883.354      159727.78      42.954443      42.954443      86.569375          16004 
   3982000   3613.4906      303679.02      7056.1018      302107.09      300346.56      308583.4       1538.0569      6635.4606      452.41113      7474.6864      11447.153      18921.84       159518.64      42.935687      42.935687      86.531576          16004 
   3983000   3579.9404      302269.1       7063.3184      301964.39      300600.92      304242        -632.31358     -2004.568       3437.3571      7405.2861      11488.976      18894.262      159660.42      42.948404      42.948404      86.557204          16004 
   3984000   3571.4233      295162.2       7070.5205      289148.49      295084.53      301253.58     -403.26784     -3233.3215      2262.7776      7387.668       11471.242      18858.91       159849.67      42.965366      42.965366      86.59139           16004 
   3985000   3553.9451      297760.54      7077.7251      298148.03      291131.82      304001.76      993.54139      1534.9749     -3274.3083      7351.5135      11490.206      18841.719      159939.23      42.973389      42.973389      86.607559          16004 
   3986000   3556.0112      298104.85      7084.913       294742.01      298428.18      301144.35      2007.9728      226.76959      1606.2209      7355.7874      11526.756      18882.543      159716.75      42.953454      42.953454      86.567382          16004 
   3987000   3577.4257      298363.91      7092.1018      295070.34      295191.93      304829.46      1919.3213      1296.0731     -2505.4612      7400.0843      11429.626      18829.71       159992.66      42.978174      42.978174      86.617202          16004 
   3988000   3579.7605      301211.91      7099.2967      299979.2       300300.34      303356.19      133.33689     -2484.2129      495.11412      7404.9139      11498.462      18903.376      159598.38      42.94284       42.94284       86.545991          16004 
   3989000   3577.7437      300818.99      7106.4962      297238.43      295309.88      309908.67     -721.11893      1601.2621     -5637.4288      7400.742       11493.441      18894.183      159646.66      42.947169      42.947169      86.554716          16004 
   3990000   3576.2643      295761.11      7113.7013      297419.82      292036.55      297826.95     -3683.5429      2660.5775      572.13924      7397.6819      11421.838      18819.52       160043.87      42.982759      42.982759      86.626442          16004 
   3991000   3594.0727      298277.19      7120.8991      296053.86      296045.37      302732.35      1697.1179      3970.9341     -1511.8977      7434.5194      11401.616      18836.135      159950.11      42.974363      42.974363      86.609522          16004 
   3992000   3582.8066      297169.71      7128.0911      296005.14      296089.76      299414.24      2110.2547      2902.3973     -1364.4976      7411.2149      11433.559      18844.774      159903.33      42.970173      42.970173      86.601078          16004 
   3993000   3590.5787      298563.49      7135.2879      295840.17      295484.15      304366.14     -1562.6193     -4199.6407      2126.8779      7427.2919      11457.317      18884.609      159681.76      42.950316      42.950316      86.561059          16004 
   3994000   3598.7302      298404.09      7142.4993      296864.08      294927.05      303421.15      3207.6015      641.37075     -1741.3394      7444.1538      11430.245      18874.399      159735.57      42.955141      42.955141      86.570782          16004 
   3995000   3583.4134      302072.74      7149.6961      299478.34      300824.98      305914.91     -582.42455      162.33351      1614.9236      7412.4702      11483.338      18895.808      159621.61      42.944923      42.944923      86.55019           16004 
   3996000   3572.9242      295892.21      7156.8962      293457.06      295205.72      299013.83     -865.36518     -1991.282      -752.92145      7390.7727      11469.103      18859.875      159812.36      42.962023      42.962023      86.584653          16004 
   3997000   3592.5487      299890.59      7164.0945      297974.76      296634.57      305062.44      4369.7853      796.43519      1187.1593      7431.3671      11401.029      18832.396      159955.71      42.974865      42.974865      86.610534          16004 
   3998000   3557.4         298105.25      7171.2987      296251.63      296263.39      301800.74      2463.5802     -100.29515     -1906.0032      7358.6602      11494.206      18852.867      159844.55      42.964907      42.964907      86.590465          16004 
   3999000   3611.0849      303913.18      7178.5058      305157.88      298562.81      308018.85      3434.8595      150.86854     -446.33137      7469.7101      11429.789      18899.499      159593.05      42.942362      42.942362      86.545027          16004 
   4000000   3598.2943      304079.61      7185.7105      308192.4       299553.26      304493.18     -1864.9695     -1167.6825     -1280.9903      7443.2521      11482.307      18925.559      159447.27      42.929283      42.929283      86.518669          16004 
Loop time of 7185.71 on 8 procs for 1000000 steps with 16004 atoms

Performance: 6.012 ns/day, 3.992 hours/ns, 139.165 timesteps/s
60.2% CPU use with 1 MPI tasks x 8 OpenMP threads

MPI task timing breakdown:
Section |  min time  |  avg time  |  max time  |%varavg| %total
---------------------------------------------------------------
Pair    | 6903.2     | 6903.2     | 6903.2     |   0.0 | 96.07
Neigh   | 10.809     | 10.809     | 10.809     |   0.0 |  0.15
Comm    | 40.072     | 40.072     | 40.072     |   0.0 |  0.56
Output  | 1.3324     | 1.3324     | 1.3324     |   0.0 |  0.02
Modify  | 205.12     | 205.12     | 205.12     |   0.0 |  2.85
Other   |            | 25.2       |            |       |  0.35

Nlocal:          16004 ave       16004 max       16004 min
Histogram: 1 0 0 0 0 0 0 0 0 0
Nghost:          13574 ave       13574 max       13574 min
Histogram: 1 0 0 0 0 0 0 0 0 0
Neighs:              0 ave           0 max           0 min
Histogram: 1 0 0 0 0 0 0 0 0 0
FullNghs:    1.467e+06 ave   1.467e+06 max   1.467e+06 min
Histogram: 1 0 0 0 0 0 0 0 0 0

Total # of neighbors = 1467004
Ave neighs/atom = 91.664834
Neighbor list builds = 32165
Dangerous builds = 0
Total wall time: 7:20:51
