
atom_style atomic
units metal
boundary p p p
#atom_modify sort 0 0.0
newton on

read_data data.lammps
Reading data file ...
  orthogonal box = (0 0 0) to (43.790145 43.790145 87.58029)
  1 by 1 by 1 MPI processor grid
  reading atoms ...
  16004 atoms
  read_data CPU = 0.039 seconds
# replicate 10 10 20

### interactions

pair_style flare
pair_coeff * * lmp.flare
Reading potential file lmp.flare with DATE: Thu

# compute unc all flare/std/atom L_inv_lmp.flare sparse_desc_lmp.flare
# compute MaxUnc all reduce max c_unc

mass 1 12.011000
mass 2 28.085000

thermo_style custom step temp press cpu pxx pyy pzz pxy pxz pyz ke pe etotal vol lx ly lz atoms    #c_MaxUnc
thermo 1000
timestep 0.0005
restart 100000 restart_*.dat

#################### Equilibrate at P and T_es ##############################
velocity all create $T 41928459 rot yes dist gaussian
velocity all create 3400 41928459 rot yes dist gaussian
fix mom all momentum 1000 linear 1 1 1 angular

fix 1 all npt temp $T $T $(100.0*dt) iso $P $P $(1000.0*dt)
fix 1 all npt temp 3400 $T $(100.0*dt) iso $P $P $(1000.0*dt)
fix 1 all npt temp 3400 3400 $(100.0*dt) iso $P $P $(1000.0*dt)
fix 1 all npt temp 3400 3400 0.050000000000000002776 iso $P $P $(1000.0*dt)
fix 1 all npt temp 3400 3400 0.050000000000000002776 iso 900000 $P $(1000.0*dt)
fix 1 all npt temp 3400 3400 0.050000000000000002776 iso 900000 900000 $(1000.0*dt)
fix 1 all npt temp 3400 3400 0.050000000000000002776 iso 900000 900000 0.5
dump 1 all custom 1000 1equil.bin id type x y z vx vy vz
run   10000 # report performance
Neighbor list info ...
  update every 1 steps, delay 10 steps, check yes
  max neighbors/atom: 2000, page size: 100000
  master list distance cutoff = 6
  ghost atom cutoff = 6
  binsize = 6, bins = 8 8 15
  1 neighbor lists, perpetual/occasional/extra = 1 0 0
  (1) pair flare/kk, perpetual
      attributes: full, newton on, kokkos_device
      pair build: full/bin/kk/device
      stencil: full/bin/3d
      bin: kk/device
Per MPI rank memory allocation (min/avg/max) = 15.9 | 15.9 | 15.9 Mbytes
   Step          Temp          Press           CPU            Pxx            Pyy            Pzz            Pxy            Pxz            Pyz           KinEng         PotEng         TotEng         Volume           Lx             Ly             Lz          Atoms   
         0   3400           64926.693      0              64530.624      64954.416      65295.038     -818.57267      21.423832     -526.49983      7033.0703     -4000.2205      3032.8498      167941.93      43.790145      43.790145      87.58029           16004 
      1000   3494.0985      899713.91      6.693804       898060.3       901811.16      899270.26      1986.1148     -208.56081      1024.8405      7227.7179      11049.183      18276.901      132783.5       40.4922        40.4922        80.9844            16004 
      2000   3378.9968      901713.4       13.441173      901632.26      903091.01      900416.92      1321.5446      630.99957     -5798.5574      6989.6242      10826.31       17815.934      132510.54      40.464435      40.464435      80.92887           16004 
      3000   3440.6942      899576.96      20.190131      901434.87      898451.27      898844.73     -2032.6115      1867.1939     -2565.7243      7117.2483      11019.404      18136.653      132579.24      40.471426      40.471426      80.942853          16004 
      4000   3377.8516      899415.56      26.939665      899975.56      900285.13      897985.98      720.29811     -1375.2918      899.35042      6987.2554      10931.033      17918.289      132452.96      40.458573      40.458573      80.917145          16004 
      5000   3404.919       901712.49      33.68917       902472.31      903358.28      899306.89     -2687.0764     -4388.4856     -176.8216       7043.2455      11126.475      18169.721      132464.1       40.459707      40.459707      80.919414          16004 
      6000   3403.1777      898134.16      40.43941       899409.16      898165.27      896828.05      1856.57        106.519        112.56669      7039.6435      10936.412      17976.055      132487.96      40.462136      40.462136      80.924272          16004 
      7000   3408.0519      902044.15      47.190072      902527.28      900592.03      903013.15     -4141.4154      5423.263      -3574.9247      7049.7262      11050.138      18099.865      132454.24      40.458703      40.458703      80.917406          16004 
      8000   3398.6713      899402.62      53.940744      901113.97      897377.14      899716.75     -1219.9464      854.01875     -430.39292      7030.3219      11011.002      18041.324      132447.18      40.457984      40.457984      80.915969          16004 
      9000   3411.8388      901164.8       60.691484      900761.43      899730.92      903002.06      1510.4066     -1449.7537      2597.0124      7057.5595      11018.018      18075.577      132408.89      40.454085      40.454085      80.908169          16004 
     10000   3383.4542      900808.26      67.447759      901460.53      899430.5       901533.76      560.61703      1513.1512      1372.0988      6998.8445      11063.006      18061.851      132442.52      40.45751       40.45751       80.91502           16004 
Loop time of 67.4478 on 8 procs for 10000 steps with 16004 atoms

Performance: 6.405 ns/day, 3.747 hours/ns, 148.263 timesteps/s
61.9% CPU use with 1 MPI tasks x 8 OpenMP threads

MPI task timing breakdown:
Section |  min time  |  avg time  |  max time  |%varavg| %total
---------------------------------------------------------------
Pair    | 64.393     | 64.393     | 64.393     |   0.0 | 95.47
Neigh   | 0.089697   | 0.089697   | 0.089697   |   0.0 |  0.13
Comm    | 0.36001    | 0.36001    | 0.36001    |   0.0 |  0.53
Output  | 0.015226   | 0.015226   | 0.015226   |   0.0 |  0.02
Modify  | 2.3092     | 2.3092     | 2.3092     |   0.0 |  3.42
Other   |            | 0.2803     |            |       |  0.42

Nlocal:          16004 ave       16004 max       16004 min
Histogram: 1 0 0 0 0 0 0 0 0 0
Nghost:          14569 ave       14569 max       14569 min
Histogram: 1 0 0 0 0 0 0 0 0 0
Neighs:              0 ave           0 max           0 min
Histogram: 1 0 0 0 0 0 0 0 0 0
FullNghs:  1.76131e+06 ave 1.76131e+06 max 1.76131e+06 min
Histogram: 1 0 0 0 0 0 0 0 0 0

Total # of neighbors = 1761314
Ave neighs/atom = 110.05461
Neighbor list builds = 218
Dangerous builds = 0
run  990000
Per MPI rank memory allocation (min/avg/max) = 16.45 | 16.45 | 16.45 Mbytes
   Step          Temp          Press           CPU            Pxx            Pyy            Pzz            Pxy            Pxz            Pyz           KinEng         PotEng         TotEng         Volume           Lx             Ly             Lz          Atoms   
     10000   3383.4542      900808.26      0              901460.53      899430.5       901533.76      560.61703      1513.1512      1372.0988      6998.8445      11063.006      18061.851      132442.52      40.45751       40.45751       80.91502           16004 
     11000   3417.0227      903143.38      6.7549688      902790.63      900846.47      905793.05     -2315.7709      724.20217      2636.6805      7068.2826      11077.921      18146.204      132333.12      40.446367      40.446367      80.892734          16004 
     12000   3392.5622      889561.94      13.518372      889097.51      888703.79      890884.52      835.30582      1930.2331     -7.9013077      7017.6849      10897.658      17915.342      132721.63      40.48591       40.48591       80.971821          16004 
     13000   3428.0803      907157.97      20.279253      905555.73      910751.66      905166.52      251.18132     -2038.6364      2237.7183      7091.1559      11144.938      18236.094      132264.68      40.439393      40.439393      80.878785          16004 
     14000   3363.6482      896515.56      27.040823      896037.73      897985.37      895523.58      1642.2486      813.11134     -127.49706      6957.8748      10949.058      17906.933      132471.66      40.460477      40.460477      80.920953          16004 
     15000   3399.5931      899615.43      33.803092      899800.96      901638.49      897406.85     -694.9896      -826.51715     -3699.8055      7032.2287      11080.045      18112.274      132448.52      40.45812       40.45812       80.916241          16004 
     16000   3384.7139      898751.24      40.5648        900690.59      899641.78      895921.36      3070.427       1905.961      -3583.2871      7001.4504      10975.878      17977.329      132447         40.457966      40.457966      80.915932          16004 
     17000   3403.6286      903263.37      47.327236      903980.73      904901.12      900908.24     -2400.755      -189.95006     -3475.2755      7040.5764      11109.141      18149.718      132376.65      40.450802      40.450802      80.901604          16004 
     18000   3385.3542      896481.4       54.089026      897948.66      896036.81      895458.73      4155.9915     -1092.7025     -2644.4611      7002.7748      11039.484      18042.258      132524.7       40.465876      40.465876      80.931751          16004 
     19000   3391.8152      906765.53      60.850154      907092.96      905678.11      907525.52      700.52836      5477.7277     -4757.2338      7016.1397      11106.499      18122.639      132301.65      40.44316       40.44316       80.886321          16004 
     20000   3414.7592      898172.38      67.610678      899474.17      899650.73      895392.22     -2680.8667     -3092.2078     -2126.5237      7063.6005      11037.682      18101.282      132538.05      40.467234      40.467234      80.934469          16004 
     21000   3365.5387      898713.36      74.374137      899682.63      899537.42      896920.04      2928.2945     -1659.5252      3159.3423      6961.7855      11049.581      18011.366      132452.38      40.458514      40.458514      80.917028          16004 
     22000   3394.5033      903147.53      81.131669      903654.51      901466.31      904321.76      4056.8312     -2778.0639     -3093.1321      7021.7002      11071.945      18093.646      132373.64      40.450495      40.450495      80.90099           16004 
     23000   3389.0976      899302.33      87.893205      898915.01      900799.23      898192.75     -4830.1175      44.912194     -1150.0138      7010.5182      11030.517      18041.036      132500.19      40.463381      40.463381      80.926763          16004 
     24000   3431.0928      903642.79      94.654253      902472.07      906264.62      902191.68      4197.6613     -120.68412      8805.4802      7097.3873      11134.671      18232.058      132377.48      40.450886      40.450886      80.901771          16004 
     25000   3377.5907      896026.01      101.41385      895788.33      895870.79      896418.9      -2044.4711      2104.4325     -2038.8554      6986.7155      11023.013      18009.729      132526.91      40.466101      40.466101      80.932201          16004 
     26000   3449.0284      902855.52      108.17438      901480.11      905802.39      901284.06      5563.1019     -3647.2673      13.834834      7134.4881      11103.718      18238.206      132398.19      40.452995      40.452995      80.90599           16004 
     27000   3382.1386      900096.92      114.93724      899402.49      899431.87      901456.38     -236.61881     -3288.6624      654.4274       6996.1231      11073.508      18069.631      132405.86      40.453777      40.453777      80.907553          16004 
     28000   3399.768       892830.66      121.6971       894010.45      891083.77      893397.75     -7438.1126      2623.5809     -4695.1472      7032.5904      11045.569      18078.159      132640.83      40.477693      40.477693      80.955386          16004 
     29000   3391.5981      906605.74      128.45747      906457.26      907380.74      905979.21      160.57306     -526.27141     -1492.8879      7015.6907      11129.11       18144.801      132246.57      40.437548      40.437548      80.875095          16004 
     30000   3426.6681      896688.05      135.21718      896084.85      897403.02      896576.27      4476.2716     -228.13206      1463.4822      7088.2346      11023.265      18111.5        132515.33      40.464922      40.464922      80.929844          16004 
     31000   3397.4026      900888.18      141.97477      902192.07      901322.89      899149.58      674.22765      5609.5097     -193.80549      7027.6974      11030.792      18058.49       132392.26      40.452391      40.452391      80.904783          16004 
     32000   3397.171       900657.48      148.73034      901285.25      900449.66      900237.52     -1792.6663      355.43297     -3409.9948      7027.2185      11014.756      18041.975      132383.95      40.451545      40.451545      80.90309           16004 
     33000   3393.7439      897020.77      155.48495      896611.31      897305.76      897145.23     -665.71454      2372.297       714.77037      7020.1292      11051.173      18071.303      132493.97      40.462748      40.462748      80.925497          16004 
     34000   3375.5243      903395.51      162.2347       903295.89      903521.75      903368.89     -5105.3877      539.03382      1296.3879      6982.4412      11008.125      17990.566      132323.48      40.445385      40.445385      80.890771          16004 
     35000   3415.751       887920.04      168.98691      887992.86      885971.96      889795.3       1157.7207      3559.8977      2337.8444      7065.6521      10879.753      17945.405      132779.94      40.491838      40.491838      80.983677          16004 
     36000   3422.3516      909298.32      175.73677      908422.3       910830.64      908642.02     -417.03386      1325.3711     -3670.2811      7079.3058      11191.597      18270.902      132218.95      40.434732      40.434732      80.869464          16004 
     37000   3431.1597      898589.66      182.49002      898871.32      896481.86      900415.8       1430.6691     -252.34938      16.533787      7097.5258      11000.301      18097.826      132465.62      40.459862      40.459862      80.919723          16004 
     38000   3383.6519      901983.02      189.24649      900208.46      903357.88      902382.72      3764.2353     -3211.0979      2061.6999      6999.2535      11050.295      18049.548      132367.84      40.449904      40.449904      80.899809          16004 
     39000   3441.3429      901565         196.0127       903023.37      901719.11      899952.52      332.74343      4560.2922     -7347.0491      7118.5903      11148.454      18267.044      132427.08      40.455938      40.455938      80.911875          16004 
     40000   3395.1991      897810.41      202.7756       899398.92      897046.09      896986.21      1131.6162     -1580.8896      1470.5184      7023.1395      10950.234      17973.374      132507.81      40.464157      40.464157      80.928314          16004 
     41000   3389.3462      903768.51      209.53854      904628.19      900521.73      906155.62      4074.4725     -450.78692     -165.00374      7011.0325      11200.694      18211.727      132351.36      40.448225      40.448225      80.89645           16004 
     42000   3347.2729      893013.77      216.30089      894369.99      892548.91      892122.41      667.02802      2096.6485     -3549.4845      6924.0017      11017.448      17941.45       132536.08      40.467034      40.467034      80.934068          16004 
     43000   3382.6658      897960.77      223.0629       897034.59      899110.71      897737        -487.1863      -1661.5281      3412.3777      6997.2138      11090.134      18087.348      132446.63      40.457928      40.457928      80.915856          16004 
     44000   3382.7986      902473.19      229.82624      902120.38      902436.17      902863.02     -2339.032       6885.6253     -5041.1838      6997.4883      11087.904      18085.392      132353.74      40.448468      40.448468      80.896935          16004 
     45000   3397.3676      895953.01      236.5886       893890.53      896254         897714.5       2708.9582     -2206.0421      1921.2282      7027.6252      11037.691      18065.316      132527.91      40.466203      40.466203      80.932406          16004 
     46000   3408.9989      900456.47      243.35168      902050.11      899744.23      899575.08      3331.8329     -1419.864       844.55493      7051.685       11123.107      18174.792      132398.64      40.453041      40.453041      80.906081          16004 
     47000   3384.6951      898591.29      250.11478      899178.35      899119.05      897476.48      2759.2449      543.50995      34.812195      7001.4114      10979.614      17981.026      132434.25      40.456668      40.456668      80.913335          16004 
     48000   3410.5571      902119.36      256.87547      902263.22      902088.01      902006.86      105.67509     -3613.7124      2913.4693      7054.9083      11121.422      18176.33       132362.32      40.449341      40.449341      80.898683          16004 
     49000   3400.5179      896597.58      263.63212      896076.58      895901.72      897814.43      4018.0124      3201.1978      5384.4129      7034.1416      11022.54       18056.682      132498.64      40.463224      40.463224      80.926447          16004 
     50000   3432.771       900485.67      270.39104      902386.56      900481.94      898588.5       1743.4438      4062.4133     -1218.6789      7100.8588      11061.522      18162.381      132468.01      40.460105      40.460105      80.920209          16004 
     51000   3407.9003      904252.07      277.151        903446.11      906784.7       902525.42     -6720.9927     -2001.7374      6931.4822      7049.4126      11007.199      18056.611      132330.64      40.446115      40.446115      80.892229          16004 
     52000   3427.8869      897228.84      283.90577      895671.38      898401.82      897613.31     -382.09536     -735.91213      328.83239      7090.7558      10958.805      18049.561      132509.66      40.464345      40.464345      80.928691          16004 
     53000   3406.685       903896.65      290.66155      902368.43      903997.06      905324.45     -958.2886       2612.8246      3027.7572      7046.8985      11085.007      18131.905      132368.35      40.449956      40.449956      80.899912          16004 
     54000   3392.4847      899137.73      297.41558      898579.9       900029.24      898804.05     -397.36724     -372.97706     -557.20814      7017.5246      11072.188      18089.713      132450.92      40.458365      40.458365      80.916729          16004 
     55000   3386.5635      897108.56      304.17082      895390.6       896405.81      899529.26      2166.6295     -421.61301     -5241.2822      7005.2764      11030.008      18035.284      132490.16      40.46236       40.46236       80.924719          16004 
     56000   3447.1041      903893.35      310.92231      902818.18      904268.01      904593.86     -2183.4688      401.42931     -1169.023       7130.5074      11071.261      18201.769      132365.81      40.449697      40.449697      80.899394          16004 
     57000   3370.754       893251.71      317.67242      895133.96      891442.48      893178.68     -947.11667      3049.489      -1169.0628      6972.5736      10908.775      17881.348      132643.02      40.477915      40.477915      80.955831          16004 
     58000   3436.0005      907195.43      324.42248      907491.03      906699.59      907395.67     -3002.5634      1080.3203      1370.9692      7107.5391      11139.488      18247.027      132266.34      40.439562      40.439562      80.879124          16004 
     59000   3432.3225      898660.21      331.17674      896645.81      898476.41      900858.4      -996.73545     -4845.4648      86.511446      7099.9311      10914.635      18014.566      132478.62      40.461185      40.461185      80.92237           16004 
     60000   3422.9711      899813.58      337.93025      898273.71      899229.78      901937.24      255.54243     -4443.6969      308.83694      7080.5873      11009.211      18089.798      132492.91      40.46264       40.46264       80.92528           16004 
     61000   3389.8392      902142.61      344.6927       900730.47      904591.4       901105.97      500.29538      5981.8161     -1449.3958      7012.0521      11080.27       18092.322      132433.82      40.456623      40.456623      80.913247          16004 
     62000   3373.7206      898158.2       351.45452      898937.39      897375.65      898161.57      284.35537      1655.3214      4115.4721      6978.71        10969.104      17947.814      132478.01      40.461123      40.461123      80.922245          16004 
     63000   3397.1217      905025.03      358.21857      903649.91      906344.3       905080.88      832.38255     -942.44257     -5579.8199      7027.1165      11144.143      18171.259      132303.53      40.443353      40.443353      80.886705          16004 
     64000   3387.6518      891160.51      364.98367      890177.78      891687.61      891616.14     -2282.1475      1459.291       6967.9551      7007.5274      10853.683      17861.21       132696.32      40.483336      40.483336      80.966672          16004 
     65000   3394.5152      904695.28      371.74749      904361.32      905239.03      904485.49      673.80026      357.38125      1177.3754      7021.7247      11120.467      18142.191      132303.67      40.443366      40.443366      80.886733          16004 
     66000   3364.0701      896931.95      378.51086      898544.47      894796.57      897454.81      4119.212      -2051.9799     -4608.5971      6958.7475      11057.445      18016.193      132539.26      40.467358      40.467358      80.934716          16004 
     67000   3357.8265      899791.72      385.27325      900194.6       899405.86      899774.68      3105.912       2788.2939     -132.77235      6945.8323      11047.459      17993.292      132463.1       40.459605      40.459605      80.91921           16004 
     68000   3433.4484      902513.89      392.03685      899923.82      903893.73      903724.12      880.01088      2342.013      -328.18183      7102.2601      11139.524      18241.784      132380.7       40.451214      40.451214      80.902427          16004 
     69000   3405.3591      892350.95      398.80113      892418.76      892661.32      891972.77      23.9141       -6661.8897     -6369.9213      7044.1559      10894.464      17938.62       132640.45      40.477653      40.477653      80.955307          16004 
     70000   3384.156       906358.03      405.56423      904570.78      907920.68      906582.62      493.73375      660.81501      2224.3221      7000.2963      11260.243      18260.54       132267.5       40.439681      40.439681      80.879361          16004 
     71000   3378.9184      896045.2       412.32746      894687.45      897403.43      896044.72     -472.73695     -90.301552     -267.11306      6989.4621      10950.349      17939.811      132543.71      40.467811      40.467811      80.935622          16004 
     72000   3365.8832      900861.24      419.09261      898531.49      902760.61      901291.63     -3482.0513     -4880.0979      484.43996      6962.498       11136.332      18098.83       132366.3       40.449747      40.449747      80.899493          16004 
     73000   3405.0101      898927.64      425.85862      897934.12      899351.87      899496.93     -7401.6434      1512.5974      3082.6376      7043.4341      11151.268      18194.702      132446.1       40.457875      40.457875      80.915749          16004 
     74000   3374.6237      892556.82      432.6228       891188.1       892912.88      893569.47     -129.06356      1651.1596      3004.4556      6980.5783      11007.721      17988.299      132628.47      40.476435      40.476435      80.952869          16004 
     75000   3400.2613      909728.08      439.38817      908292.73      910471.61      910419.9      -1532.971      -1621.6452      2417.3281      7033.6109      11141.702      18175.313      132154.34      40.428145      40.428145      80.85629           16004 
     76000   3370.0802      892497.91      446.15281      892325.97      892795.33      892372.43      1496.9363     -1836.4697      1720.7163      6971.1796      11025.77       17996.95       132599.63      40.473501      40.473501      80.947001          16004 
     77000   3411.0348      900239.95      452.9156       898321.69      901155.56      901242.61     -1027.8261      3475.3763     -167.63966      7055.8964      11050.799      18106.696      132436.99      40.456947      40.456947      80.913894          16004 
     78000   3371.2106      900257.19      459.67894      899916.02      899458.49      901397.05     -387.52676      365.17558     -190.48636      6973.5181      11017.984      17991.502      132393.2       40.452487      40.452487      80.904973          16004 
     79000   3411.5704      895547.4       466.44243      896442.14      893433.09      896766.96      1538.6887      476.82693     -4089.9386      7057.0043      10945.652      18002.657      132542.58      40.467696      40.467696      80.935391          16004 
     80000   3410.9493      909163.05      473.20296      907687.86      909802.87      909998.42     -3865.4595     -29.940592     -1384.3868      7055.7195      11088.141      18143.86       132193.67      40.432154      40.432154      80.864309          16004 
     81000   3411.028       893865.45      479.96489      895732.46      893231.6       892632.29      4729.3671     -482.88304      1309.8285      7055.8822      10952.432      18008.314      132615.9       40.475156      40.475156      80.950312          16004 
     82000   3429.6998      902360.52      486.72659      905245.43      903304.42      898531.7      -2863.1276      3462.4861     -218.23915      7094.5058      11032.908      18127.414      132335.49      40.446608      40.446608      80.893216          16004 
     83000   3413.0807      898063.32      493.48302      898498.41      897270.6       898420.95      4334.5511     -474.69072      2969.6279      7060.1285      10962.707      18022.836      132496.49      40.463004      40.463004      80.926009          16004 
     84000   3402.2748      901662         500.23414      900763.88      901923.56      902298.56     -1669.6006     -2140.8764     -1464.879       7037.776       11058.632      18096.408      132386.58      40.451813      40.451813      80.903626          16004 
     85000   3394.8011      900782.9       506.99056      900385.44      899609.03      902354.22      308.86954      81.962284      5452.605       7022.3162      11051.944      18074.26       132455.8       40.458861      40.458861      80.917723          16004 
     86000   3412.2681      899180.31      513.7474       901213.29      898796.92      897530.71     -3935.8413     -2424.2462     -3068.4003      7058.4475      11017.222      18075.67       132446.78      40.457944      40.457944      80.915887          16004 
     87000   3429.4589      901140.76      520.51313      901331.26      902511.65      899579.37     -3556.6032      368.14335     -1081.3635      7094.0075      11090.83       18184.837      132392.71      40.452437      40.452437      80.904875          16004 
     88000   3360.0804      894439.38      527.27331      892332.48      896597.86      894387.8       4913.3764      3546.4642      1369.4611      6950.4946      10997.158      17947.653      132568.77      40.470361      40.470361      80.940722          16004 
     89000   3421.785       907587.18      534.02999      908255.77      907069.76      907435.99     -2129.9486     -3740.6866      5721.481       7078.1338      11131.603      18209.736      132327.45      40.445789      40.445789      80.891579          16004 
     90000   3404.6917      893777.83      540.7867       892724.32      894860.72      893748.45      139.40017     -547.14689     -1073.053       7042.7753      10856.565      17899.34       132633         40.476896      40.476896      80.953792          16004 
     91000   3448.6715      903985.93      547.5457       905532.5       901884.2       904541.09     -3040.3032      3351.5805      2996.836       7133.7497      11090.084      18223.834      132371.02      40.450228      40.450228      80.900456          16004 
     92000   3382.2338      898066.55      554.30242      899606.94      898787.34      895805.37     -2050.2016     -2004.1322      3508.6267      6996.3201      11008.668      18004.989      132521.58      40.465559      40.465559      80.931117          16004 
     93000   3406.6652      897227.01      561.06287      899062.44      894188.6       898429.98     -2865.1578      6960.7267      2826.6854      7046.8577      10991.121      18037.978      132487.36      40.462075      40.462075      80.924149          16004 
     94000   3415.1293      903712.84      567.82365      902620.23      903875.51      904642.79      3142.5834     -4372.866      -3065.8408      7064.366       11109.741      18174.107      132385.26      40.451678      40.451678      80.903356          16004 
     95000   3427.3492      890878.24      574.5838       892618.65      891065.24      888950.82      1255.865       3362.9684      2343.3489      7089.6435      10886.67       17976.313      132734.79      40.487248      40.487248      80.974497          16004 
     96000   3413.5274      908943.94      581.34415      908964.4       910964.59      906902.84      2872.7634      2799.7246     -817.20485      7061.0525      11101.715      18162.767      132204.99      40.433309      40.433309      80.866618          16004 
     97000   3398.6691      896870.46      588.10544      897409.39      896671.29      896530.71      281.04806     -1082.4462      1462.064       7030.3174      10911.463      17941.781      132520.51      40.46545       40.46545       80.9309            16004 
     98000   3399.6247      901793.91      594.8666       899316.58      902473.66      903591.48      2462.7318      3259.8455      1997.8722      7032.294       11061.763      18094.057      132422.28      40.455449      40.455449      80.910897          16004 
     99000   3411.953       899916.88      601.62475      900663.76      899977.11      899109.77      4365.7575      1958.2035     -1842.6134      7057.7957      11062.851      18120.647      132459.3       40.459219      40.459219      80.918437          16004 
    100000   3474.2718      898825.51      608.38906      899558.18      896918.54      899999.82      4891.3989      207.13758     -1712.8826      7186.7052      10966.811      18153.516      132515.82      40.464972      40.464972      80.929944          16004 
    101000   3388.6378      905643.73      615.14808      904128.31      905481.6       907321.28     -584.24611     -861.85136     -454.80393      7009.567       11091.213      18100.78       132309.6       40.443971      40.443971      80.887942          16004 
    102000   3369.2753      892895.8       621.90943      894028.04      891071.81      893587.54      2367.0066      5899.7424      3830.8088      6969.5148      10927.009      17896.524      132604.32      40.473978      40.473978      80.947957          16004 
    103000   3406.5296      908049.17      628.6697       910420.64      908177.32      905549.56     -4832.3659      41.45669      -2731.4432      7046.5772      11155.078      18201.656      132218.56      40.434693      40.434693      80.869385          16004 
    104000   3373.4207      899648.9       635.42939      898900.76      899463.38      900582.55     -738.17168      487.5066      -597.80284      6978.0897      10994.935      17973.025      132474.83      40.460799      40.460799      80.921598          16004 
    105000   3426.3997      900460.05      642.18891      901645.99      901126.66      898607.48      2874.7886      1864.3006      1493.1931      7087.6795      10958.575      18046.255      132464.68      40.459766      40.459766      80.919531          16004 
    106000   3389.2534      898348.27      648.94842      898800.91      898344.45      897899.45     -602.89976     -2210.9334      1864.939       7010.8405      11072.677      18083.518      132464.5       40.459748      40.459748      80.919496          16004 
    107000   3336.4857      898370.17      655.70708      897508.13      900345.37      897257.01      497.11684     -2906.4124      261.96484      6901.6878      11030.89       17932.578      132453.74      40.458653      40.458653      80.917305          16004 
    108000   3415.0687      903301.55      662.46464      903908.8       903284.88      902710.97     -6358.8607      375.77441      1868.5946      7064.2406      11096.292      18160.533      132353.99      40.448493      40.448493      80.896986          16004 
    109000   3403.6567      894267.38      669.22127      892089.02      894000.02      896713.12      241.87097      4649.4343      1726.3343      7040.6344      10872.154      17912.788      132597.73      40.473308      40.473308      80.946616          16004 
    110000   3373.5811      907527.46      675.97704      907489.89      910067.35      905025.14     -49.326049     -1416.6114     -945.04366      6978.4215      11204.93       18183.352      132221.9       40.435033      40.435033      80.870066          16004 
    111000   3382.5641      896124.33      682.72501      897503.37      896318.9       894550.73      2093.6512      2270.7677      1632.7252      6997.0032      10965.96       17962.963      132512.97      40.464682      40.464682      80.929364          16004 
    112000   3383.8582      902285.39      689.47805      904428.08      902657.63      899770.47      837.68085      719.08353     -1945.5132      6999.6803      11108.186      18107.866      132402.59      40.453443      40.453443      80.906886          16004 
    113000   3416.4159      899161.86      696.23168      898510.74      899507.61      899467.22      1079.4712     -2299.8256      3307.2031      7067.0274      10969.976      18037.004      132440.4       40.457294      40.457294      80.914588          16004 
    114000   3406.9834      899392.14      702.991        901908.6       896750.31      899517.52      5307.4515     -891.83439      217.99155      7047.5158      10944.868      17992.384      132471.56      40.460466      40.460466      80.920932          16004 
    115000   3337.731       903231.89      709.7553       901539.66      902253.85      905902.16      4785.3868      572.19102     -1878.119       6904.2638      11119.421      18023.685      132363.55      40.449467      40.449467      80.898933          16004 
    116000   3399.5074      890432.03      716.51896      890479.8       888944.79      891871.49      37.649509     -345.37717     -223.44924      7032.0514      10961.364      17993.416      132682.98      40.481979      40.481979      80.963959          16004 
    117000   3432.6967      911442.56      723.27995      912510.62      910609.37      911207.68      1558.0822     -191.65065      1641.0184      7100.7052      11206.063      18306.768      132142.3       40.426916      40.426916      80.853833          16004 
    118000   3403.5873      893897.75      730.04297      893769.52      894445.89      893477.82     -5016.1437     -1211.8592      4127.1455      7040.4909      10919.204      17959.695      132624.25      40.476006      40.476006      80.952011          16004 
    119000   3378.4858      899714.79      736.80512      899282.44      900731.97      899129.95      512.02715      1519.4134      3066.6425      6988.5671      11050.146      18038.713      132465.85      40.459885      40.459885      80.91977           16004 
    120000   3387.2223      900369.02      743.56533      899226.5       899989.19      901891.36     -4145.8583     -4162.0349     -869.41668      7006.639       11020.827      18027.465      132404.84      40.453673      40.453673      80.907345          16004 
    121000   3376.3471      902062.54      750.32775      901124.03      902406.97      902656.62      1260.1946     -1801.2908      3864.6565      6984.1432      11013.028      17997.171      132406.52      40.453843      40.453843      80.907686          16004 
    122000   3414.1788      897553.67      757.09127      899554.59      896146.09      896960.33     -3600.3906      458.84656      1494.8031      7062.3999      10980.648      18043.048      132517.37      40.46513       40.46513       80.930259          16004 
    123000   3387.7656      898255.03      763.85169      899390.27      896303.95      899070.87      1257.7148      2603.9422     -46.04096       7007.7629      10937.276      17945.039      132502.07      40.463572      40.463572      80.927144          16004 
    124000   3407.9696      906716.31      770.61423      908852.15      906856.56      904440.24     -2499.201       2707.86       -1080.3636      7049.5558      11118.172      18167.728      132253.65      40.438269      40.438269      80.876538          16004 
    125000   3395.8416      894347.13      777.37496      893626.37      894781.43      894633.61     -3681.3775     -2115.9163     -357.55533      7024.4685      10999.351      18023.82       132611.68      40.474727      40.474727      80.949454          16004 
    126000   3389.3569      898822.11      784.13736      899272.04      897463.65      899730.64      554.36529      28.706322      1264.8251      7011.0545      11003.669      18014.724      132432.31      40.45647       40.45647       80.912941          16004 
    127000   3402.4955      902069.47      790.89857      901099.75      900082.09      905026.57     -3061.5871      5290.9361     -1377.9898      7038.2324      11123.35       18161.582      132402.85      40.45347       40.45347       80.90694           16004 
    128000   3360.3991      899964.18      797.66139      900950.12      901215.07      897727.35     -3344.1213     -1285.6838      3311.0308      6951.1539      11002.673      17953.827      132450.58      40.458331      40.458331      80.916662          16004 
    129000   3411.206       901193.74      804.42199      896844.36      904287.23      902449.63      1400.2937      1390.8591     -6223.4714      7056.2506      11054.602      18110.852      132403.56      40.453542      40.453542      80.907084          16004 
    130000   3424.7192      901562.76      811.18516      900564.41      900937.4       903186.47      898.62057     -424.92807      4665.6135      7084.2033      10990.522      18074.725      132402.7       40.453454      40.453454      80.906908          16004 
    131000   3436.8894      904275.29      817.94535      904670.28      904241.94      903913.65     -1553.4229      302.23926     -2180.9256      7109.3779      11063.432      18172.81       132399.34      40.453112      40.453112      80.906224          16004 
    132000   3406.8007      894861.95      824.70417      894959.52      897129.92      892496.4       3690.39       -3524.3813      1010.686       7047.1379      10945.931      17993.069      132569.12      40.470396      40.470396      80.940793          16004 
    133000   3424.6229      907864.94      831.46286      906667.04      910116.3       906811.48     -5098.0072     -3528.5451     -84.909952      7084.0041      11150.708      18234.712      132216.43      40.434475      40.434475      80.86895           16004 
    134000   3391.2291      893743.46      838.21865      896086.28      891033.57      894110.53     -5780.7609     -141.60758     -3972.6921      7014.9272      10934.992      17949.92       132627.04      40.47629       40.47629       80.952579          16004 
    135000   3394.3225      902740.89      844.97182      904954.45      901457.12      901811.09      2400.8332      1723.5568      1172.0785      7021.3262      11076.87       18098.196      132359.16      40.449019      40.449019      80.898039          16004 
    136000   3419.8624      901464.43      851.72709      901622.04      899259.8       903511.46      3066.7056      1648.8576     -2031.741       7074.1567      11049.816      18123.973      132406.52      40.453844      40.453844      80.907687          16004 
    137000   3372.977       898794.75      858.47896      897464.3       899337.02      899582.94     -416.8846       4047.8663      1488.8212      6977.1719      11024.517      18001.689      132480.65      40.461392      40.461392      80.922785          16004 
    138000   3401.95        904701.65      865.23171      906179.75      902975.69      904949.51     -2531.0851      2578.2867     -885.19881      7037.104       11114.634      18151.738      132309.91      40.444003      40.444003      80.888005          16004 
    139000   3367.3512      894495.95      871.98837      896333.11      896128.64      891026.11      310.56093      333.27898      2375.1299      6965.5347      10967.654      17933.189      132588.4       40.472359      40.472359      80.944718          16004 
    140000   3427.4931      903150.85      878.75253      900829.47      906071.22      902551.84     -2466.2083      699.8636       1440.2751      7089.9412      11099.048      18188.989      132373.57      40.450488      40.450488      80.900975          16004 
    141000   3405.2925      902525.52      885.51098      902416.54      899441.42      905718.59     -2009.591      -2764.7066     -1544.8479      7044.0181      10982.566      18026.584      132423.84      40.455607      40.455607      80.911215          16004 
    142000   3393.6677      899124.63      892.27263      900669.42      899864.22      896840.25     -1417.4749     -4124.7664     -1877.7713      7019.9717      11031.858      18051.83       132457.48      40.459033      40.459033      80.918066          16004 
    143000   3371.3859      901158.22      899.0342       902092.13      898398.4       902984.15     -3536.7554      8216.5926      2073.5227      6973.8806      11073.962      18047.842      132394.36      40.452605      40.452605      80.90521           16004 
    144000   3411.0339      895556.39      905.79439      896733.94      893099.38      896835.86     -504.66055     -2602.766      -406.3629       7055.8946      10995.342      18051.236      132527.14      40.466124      40.466124      80.932249          16004 
    145000   3414.1386      906355.76      912.55642      905577.05      906586.86      906903.35      1159.4027     -1311.9312     -265.73222      7062.3167      11119.848      18182.165      132227.27      40.435581      40.435581      80.871161          16004 
    146000   3397.8071      890754.61      919.32098      891676.43      888692.18      891895.2      -2559.7284      1441.8819      1098.745       7028.5341      10854.861      17883.395      132656.81      40.479318      40.479318      80.958635          16004 
    147000   3417.6015      903166.69      926.08223      903977.75      904102.79      901419.53      524.52853     -5570.6469     -3777.1299      7069.4799      11121.803      18191.283      132357.74      40.448875      40.448875      80.89775           16004 
    148000   3358.5305      898692.96      932.84313      899768.71      899406.86      896903.32      1817.2331     -2355.7069     -2713.0319      6947.2886      11062.703      18009.992      132445.07      40.457769      40.457769      80.915538          16004 
    149000   3391.5841      900125.48      939.60397      898024.41      901267.9       901084.12     -4352.3826     -301.29913     -3514.5427      7015.6616      11093.993      18109.655      132385.23      40.451676      40.451676      80.903351          16004 
    150000   3373.1135      900593.13      946.36469      898773.35      900493.43      902512.61      1641.629      -5008.1009      837.52978      6977.4542      11064.532      18041.986      132402.05      40.453389      40.453389      80.906777          16004 
    151000   3399.557       898449.8       953.12609      899255.62      899035.94      897057.84     -2182.0992     -1825.0427      667.33426      7032.154       10971.79       18003.944      132496.54      40.46301       40.46301       80.92602           16004 
    152000   3394.1283      903623.55      959.88577      904451.87      904883.75      901535.05     -1232.35        2519.7384      742.03982      7020.9244      11144.373      18165.297      132303.08      40.443307      40.443307      80.886613          16004 
    153000   3355.7155      891636.26      966.64805      889061.59      894910.4       890936.79      3447.1072      4368.1901      216.1225       6941.4656      10899.541      17841.007      132623.47      40.475926      40.475926      80.951852          16004 
    154000   3406.2814      904281.61      973.4072       904133.23      907508.28      901203.31     -1015.0421     -3445.5091      2181.4601      7046.0637      11087.352      18133.415      132352.09      40.4483        40.4483        80.8966            16004 
    155000   3401.6983      898120.45      980.16762      895601.16      899548.76      899211.43      315.32927     -2410.7444      371.75266      7036.5834      10910.213      17946.796      132473.07      40.46062       40.46062       80.921239          16004 
    156000   3399.6063      901434.65      986.91614      900059.19      901990.74      902254.03     -891.22312     -3235.5681     -2436.87        7032.256       11132.77       18165.026      132368.6       40.449982      40.449982      80.899964          16004 
    157000   3441.7224      897260.52      993.66799      897263.21      896736.22      897782.14     -2316.3702     -1880.7333      1550.1488      7119.3752      11023.661      18143.036      132502.68      40.463635      40.463635      80.92727           16004 
    158000   3391.8373      903326.58      1000.4243      904357.5       905078.13      900544.12      2706.9159     -1207.1043      817.59032      7016.1854      11118.831      18135.017      132343.7       40.447445      40.447445      80.894889          16004 
    159000   3375.2421      898277.41      1007.1792      898134.51      903029.34      893668.39     -6388.2722     -1514.8958     -1989.6053      6981.8573      10944.984      17926.841      132439.02      40.457154      40.457154      80.914307          16004 
    160000   3425.8711      898362.22      1013.9365      897635.44      900292.73      897158.5       1286.3623     -365.86483     -770.24845      7086.586       11049.271      18135.857      132462.01      40.459494      40.459494      80.918988          16004 
    161000   3407.5846      904758.9       1020.6907      903252.83      905893.13      905130.73      2382.1009      1614.2768      2739.6955      7048.7594      11024.016      18072.776      132269.13      40.439846      40.439846      80.879692          16004 
    162000   3395.7689      897001.21      1027.4483      897292.87      898637.93      895072.83      845.73045     -218.30676      560.98718      7024.318       10942.913      17967.231      132467.82      40.460086      40.460086      80.920172          16004 
    163000   3378.4905      900767.06      1034.2041      898417.53      901984.62      901899.04     -530.63646     -1038.0435     -2584.7755      6988.5769      11119.09       18107.666      132400.17      40.453197      40.453197      80.906394          16004 
    164000   3404.236       900715.99      1040.9622      899386.05      902214.32      900547.61     -296.56956      399.03766      4097.5137      7041.8328      10951.605      17993.438      132388.53      40.452011      40.452011      80.904022          16004 
    165000   3364.1814      896997.57      1047.7185      897459.72      897896.87      895636.13     -5989.9474      2360.3327     -4624.7882      6958.9778      11112.056      18071.034      132487.76      40.462116      40.462116      80.924232          16004 
    166000   3400.9255      902029.93      1054.4729      902570.67      901410.04      902109.09     -6926.4217     -482.66295     -3385.8253      7034.9847      11000.923      18035.907      132420.97      40.455315      40.455315      80.91063           16004 
    167000   3424.2199      901727.86      1061.2244      901603.5       901077.69      902502.38      1260.6021      2691.8695     -285.70371      7083.1705      11049.098      18132.268      132403.68      40.453555      40.453555      80.907109          16004 
    168000   3392.2474      895087.72      1067.9715      895209.91      895229.34      894823.9       1988.2294     -3467.8558     -2211.2203      7017.0336      10922.209      17939.242      132609.74      40.47453       40.47453       80.949059          16004 
    169000   3402.8097      901247.8       1074.7198      901505.72      902230.79      900006.9      -397.84904     -2396.9143      540.29174      7038.8823      11031.701      18070.583      132387.46      40.451903      40.451903      80.903806          16004 
    170000   3397.9527      896693.01      1081.4692      897363.25      896271.88      896443.91      1127.0029     -2304.5054     -4229.8364      7028.8354      11022.675      18051.51       132498.19      40.463177      40.463177      80.926355          16004 
    171000   3410.4638      900132.76      1088.2168      899042.69      900238.61      901116.96     -2285.7405      1820.3197     -2383.0312      7054.7153      10973.357      18028.073      132412.38      40.45444       40.45444       80.90888           16004 
    172000   3412.8158      901201.71      1094.9669      901105.88      901880.4       900618.85      5064.6853     -577.72175     -7046.1419      7059.5806      11059.757      18119.337      132413.54      40.454559      40.454559      80.909118          16004 
    173000   3391.3892      896690.22      1101.7192      898166.28      896284.57      895619.8      -3611.0476      2599.5757     -117.29524      7015.2584      10978.139      17993.398      132540.36      40.46747       40.46747       80.934939          16004 
    174000   3419.0805      905773.11      1108.4764      909079.17      903454.79      904785.37     -1962.6175     -27.106134      3075.3182      7072.5393      11141.185      18213.725      132307.92      40.443799      40.443799      80.887599          16004 
    175000   3422.3102      888595.37      1115.236       886510.46      888457.42      890818.24      573.59896     -3377.5654      1354.5957      7079.22        10813.177      17892.397      132704.19      40.484137      40.484137      80.968274          16004 
    176000   3425.9858      904739.69      1121.9963      904145.65      905782.75      904290.67     -1852.8271      235.49976     -4808.6376      7086.8233      11093.671      18180.494      132333.72      40.446428      40.446428      80.892856          16004 
    177000   3412.1416      896929.68      1128.7555      897339.43      894406.56      899043.04     -2422.7888     -4185.5305     -1258.4827      7058.1859      10921.223      17979.408      132563.49      40.469824      40.469824      80.939648          16004 
    178000   3386.0572      898117.44      1135.5139      894845.68      898796.78      900709.85      8082.0333     -519.66952     -3170.0874      7004.229       11034.062      18038.291      132477.09      40.461029      40.461029      80.922058          16004 
    179000   3428.4361      904375.95      1142.2725      904337.34      902415.66      906374.84      5303.4316     -1462.9267     -722.21743      7091.8918      11081.417      18173.308      132399.95      40.453175      40.453175      80.906349          16004 
    180000   3436.5757      894022.48      1149.0315      895808.64      893796.57      892462.24      2175.8038     -3666.527      -470.23888      7108.729       10946.131      18054.86       132626.54      40.476239      40.476239      80.952478          16004 
    181000   3393.9941      905619.48      1155.7901      904318.97      906672.92      905866.56      934.8147       1144.3995      3312.7165      7020.6468      11085.131      18105.778      132263.23      40.439246      40.439246      80.878492          16004 
    182000   3406.7803      898115.8       1162.5493      897955.24      898827.64      897564.51     -7489.7072     -404.5211       2020.8414      7047.0958      10908.293      17955.388      132500.11      40.463373      40.463373      80.926747          16004 
    183000   3422.6785      901268.57      1169.3067      901233.32      902169.16      900403.22     -2264.7538      3814.1966     -3488.7496      7079.9819      10990.579      18070.56       132469.91      40.460299      40.460299      80.920598          16004 
    184000   3395.0433      900933.46      1176.0642      900669.51      901487.2       900643.68     -2423.6722      2034.3488      1000.767       7022.8172      10994.477      18017.294      132431.31      40.456368      40.456368      80.912735          16004 
    185000   3435.2396      898346.48      1182.8206      899475.87      898054.06      897509.51      707.40553     -198.65625     -6654.1123      7105.9653      10917.518      18023.483      132525.92      40.466         40.466         80.932001          16004 
    186000   3415.2793      903657.76      1189.572       904443.48      904546.59      901983.21     -768.00791      3183.3933     -555.54263      7064.6764      11080.845      18145.522      132387.57      40.451914      40.451914      80.903828          16004 
    187000   3399.5402      892376.03      1196.3191      891710.86      893148.94      892268.3      -330.89319      881.27171      2793.5874      7032.1192      10784.905      17817.025      132656.83      40.47932       40.47932       80.95864           16004 
    188000   3405.9401      901465.17      1203.0683      904763.83      897312.06      902319.62     -1285.5476      718.20542     -3478.7845      7045.3577      11034.696      18080.053      132438.92      40.457143      40.457143      80.914285          16004 
    189000   3425.2792      901593.7       1209.8179      903352.75      900073.25      901355.1       3263.375       4037.8597      1916.1979      7085.3616      10962.742      18048.103      132419.16      40.455131      40.455131      80.910261          16004 
    190000   3380.59        898567.4       1216.5699      899190.6       899407.33      897104.28     -224.18812      5556.3976      1897.2419      6992.9197      10909.568      17902.488      132504.36      40.463806      40.463806      80.927611          16004 
    191000   3393.9132      902577.26      1223.3268      903167.14      902839.52      901725.13     -7412.3598     -1096.1836      36.983105      7020.4794      11092.166      18112.646      132367.65      40.449884      40.449884      80.899769          16004 
    192000   3410.1344      896503.1       1230.0876      893498.76      896941.03      899069.52     -1338.5656     -195.09906     -795.5285       7054.0339      10936.807      17990.841      132534.65      40.466888      40.466888      80.933777          16004 
    193000   3400.5072      904003.6       1236.8489      905830.49      904675.13      901505.18      7211.5817      5010.2424      2335.9442      7034.1194      11225.747      18259.867      132346.67      40.447747      40.447747      80.895494          16004 
    194000   3432.9865      893649.3       1243.616       893274.01      892579.1       895094.78     -3488.7422      4721.0198     -2211.681       7101.3047      10881.644      17982.949      132619.43      40.475516      40.475516      80.951032          16004 
    195000   3397.6493      901232.03      1250.385       899029.47      904007.55      900659.08     -578.78161     -781.42483     -6001.3892      7028.2078      11051.053      18079.261      132420.62      40.45528       40.45528       80.910559          16004 
    196000   3415.2381      900040.42      1257.1451      897961.53      900684.8       901474.95     -2234.8864     -3853.2882     -1672.1896      7064.5912      10994.809      18059.4        132409.17      40.454113      40.454113      80.908226          16004 
    197000   3378.6296      899091.13      1263.9093      900548.76      899611.46      897113.17      3640.4602      1733.8664     -3515.9473      6988.8646      10961.376      17950.24       132418.16      40.455029      40.455029      80.910059          16004 
    198000   3389.6929      897309.11      1270.6722      896436.65      897419.62      898071.05      3155.4489      1356.1178      2571.1778      7011.7496      11014.868      18026.617      132487.71      40.462111      40.462111      80.924222          16004 
    199000   3407.5651      900858.5       1277.433       899919.83      900844.02      901811.66     -4246.5533     -152.13968     -2702.7048      7048.7192      11010.576      18059.296      132396.11      40.452783      40.452783      80.905567          16004 
    200000   3386.3621      895246.31      1284.2021      897229.18      893281.61      895228.14      560.03423     -2230.0974     -2361.582       7004.8597      10900.802      17905.661      132536.87      40.467115      40.467115      80.93423           16004 
    201000   3422.1744      898466.91      1290.9609      898807.7       899526.79      897066.23      5560.7783      2090.7806     -2657.6897      7078.9391      10965.222      18044.162      132469.85      40.460293      40.460293      80.920585          16004 
    202000   3409.1977      901406.97      1297.7217      901513.74      901010.59      901696.58     -2306.6647     -2228.2483     -2964.1155      7052.0962      11061.732      18113.829      132400.58      40.453239      40.453239      80.906477          16004 
    203000   3435.368       896712.36      1304.4806      895261.1       899202.86      895673.13     -6967.2787      323.15357     -3473.2338      7106.2309      10966.153      18072.384      132521.35      40.465535      40.465535      80.93107           16004 
    204000   3376.24        903152.22      1311.2378      902098.32      903315.74      904042.59      194.54588     -1744.3623     -1316.9356      6983.9216      11070.622      18054.543      132320.4       40.445071      40.445071      80.890143          16004 
    205000   3404.0831      896406.38      1317.9947      896526.21      895770.11      896922.83     -2580.2394     -2044.6692     -2581.5392      7041.5164      10984.945      18026.462      132508.03      40.464179      40.464179      80.928358          16004 
    206000   3432.1713      901570.19      1324.7506      901418.97      903098.65      900192.94      2221.0269     -921.22268      2786.5023      7099.6182      11005.797      18105.416      132419.27      40.455143      40.455143      80.910285          16004 
    207000   3401.896       903809.74      1331.5058      902315.31      904831.38      904282.54      2543.1671     -5058.4464     -454.96572      7036.9923      11086.467      18123.459      132346.4       40.44772       40.44772       80.89544           16004 
    208000   3372.7653      894085.43      1338.2584      893566.73      894002.42      894687.16     -1046.1206      1011.9378     -3472.9018      6976.734       10936.721      17913.455      132563.83      40.469858      40.469858      80.939716          16004 
    209000   3354.2018      906198.82      1345.0102      903227.67      906587.65      908781.13      3576.1052     -1055.1943      100.75862      6938.3344      11102.414      18040.748      132259.51      40.438867      40.438867      80.877733          16004 
    210000   3391.0032      897241.43      1351.7619      897783.63      896568         897372.67      2712.5812      434.23344      5680.8138      7014.4601      10999.306      18013.766      132541.94      40.467631      40.467631      80.935262          16004 
    211000   3378.4754      898631.85      1358.5075      898049.93      900110.6       897735.03      3781.2146     -1320.8121      895.92875      6988.5456      10980.082      17968.627      132445.22      40.457785      40.457785      80.915569          16004 
    212000   3413.4636      902062.2       1365.2536      904626.38      898145.05      903415.18      86.941889      2576.376       4565.3652      7060.9204      11021.212      18082.132      132429.62      40.456196      40.456196      80.912391          16004 
    213000   3386.6428      901089.86      1372.0002      902053         902896.31      898320.26      78.376981     -212.54939      978.25767      7005.4404      10980.863      17986.303      132401.89      40.453372      40.453372      80.906745          16004 
    214000   3412.0144      900583.64      1378.7422      902442.14      899576.35      899732.42      3671.9014      3793.7814      2816.7605      7057.9227      11019.791      18077.714      132429.53      40.456187      40.456187      80.912373          16004 
    215000   3407.2731      895661.16      1385.4871      897054.02      894524.19      895405.27     -2950.0477      1632.0613     -832.61343      7048.1151      10904.811      17952.926      132588.67      40.472385      40.472385      80.944771          16004 
    216000   3438.9072      906677.58      1392.2354      906609.08      906936.93      906486.73     -3595.0156     -1352.9966     -2781.0077      7113.5519      11135.155      18248.707      132255.57      40.438465      40.438465      80.876929          16004 
    217000   3391.6724      895123.18      1398.9909      896374.35      894303.83      894691.37     -373.60238      708.74782      1367.0018      7015.8443      10965.754      17981.598      132495.69      40.462923      40.462923      80.925845          16004 
    218000   3417.3777      901367.87      1405.7489      901025.18      903920.25      899158.19      2955.2596     -4822.7272      1616.7346      7069.017       11035.752      18104.769      132382.18      40.451365      40.451365      80.90273           16004 
    219000   3385.8101      899787.89      1412.5089      899514.06      899650.96      900198.66     -570.28868     -699.3503      -650.17134      7003.7177      10997.181      18000.899      132450.75      40.458347      40.458347      80.916695          16004 
    220000   3411.6774      899913.48      1419.2661      900345.82      900446.21      898948.43      1208.7204     -1085.7976      2953.9592      7057.2257      11029.899      18087.125      132468.39      40.460144      40.460144      80.920288          16004 
    221000   3405.5845      902346.87      1426.0246      903945.41      900505.06      902590.14      1282.446       1368.8173      4868.5781      7044.6222      11082.302      18126.924      132422.87      40.455509      40.455509      80.911018          16004 
    222000   3445.8285      891942.65      1432.7829      890142.11      893833.27      891852.58      2063.0495     -3310.1332     -1641.8949      7127.8689      10866.547      17994.416      132676.15      40.481284      40.481284      80.962569          16004 
    223000   3364.0362      909630.24      1439.5418      907663.4       911562.93      909664.41     -2360.8568     -2610.4262      167.70958      6958.6774      11149.031      18107.708      132166.55      40.42939       40.42939       80.85878           16004 
    224000   3437.4743      896800.85      1446.3002      896313.6       895607.74      898481.22     -57.690595      5196.7464      1464.124       7110.5879      10945.505      18056.093      132563.83      40.469859      40.469859      80.939717          16004 
    225000   3423.3104      902804.17      1453.0585      902870.91      902896.36      902645.25      650.23944      183.88888      2736.2153      7081.289       10979.7        18060.989      132432.51      40.45649       40.45649       80.91298           16004 
    226000   3378.2326      898427.67      1459.815       901512.39      897698.91      896071.72     -908.89748      2093.4682     -1281.9093      6988.0434      11041.565      18029.609      132496.83      40.463039      40.463039      80.926079          16004 
    227000   3407.3025      898089.95      1466.5723      899500.9       897330.77      897438.19      3293.1328      2331.55        3441.3525      7048.176       10909.478      17957.654      132466.23      40.459924      40.459924      80.919848          16004 
    228000   3409.2946      902402.92      1473.332       899447.47      903953.78      903807.5       2940.3864      3609.493       4329.3742      7052.2966      11113.394      18165.691      132372.09      40.450337      40.450337      80.900675          16004 
    229000   3368.6066      894107.14      1480.0907      893271.62      895001.14      894048.65      3379.8046      2404.7217      2078.1309      6968.1314      11032.846      18000.978      132600.96      40.473636      40.473636      80.947272          16004 
    230000   3419.5381      909442.54      1486.8498      908850.68      910802.9       908674.04     -2208.1064     -2058.5818      509.56608      7073.4859      11067.081      18140.567      132214.61      40.434289      40.434289      80.868578          16004 
    231000   3416.3324      896888.09      1493.6117      893881.07      898070.05      898713.15     -1439.1619     -1962.3983      3055.0588      7066.8548      10950.413      18017.267      132538.05      40.467235      40.467235      80.934469          16004 
    232000   3410.4698      898099.42      1500.3678      897729.15      897219.03      899350.08     -4683.6208     -2231.5371     -1788.0568      7054.7277      11007.635      18062.363      132457.32      40.459017      40.459017      80.918034          16004 
    233000   3405.9832      902980.36      1507.1266      903562.73      902159.08      903219.27     -1505.0949      281.63881     -1906.974       7045.4469      11020.313      18065.76       132308.2       40.443828      40.443828      80.887656          16004 
    234000   3450.1178      896232.51      1513.8853      895109.16      895434.47      898153.89     -3384.5493      290.74314      5633.8428      7136.7415      10905.001      18041.743      132577.65      40.471264      40.471264      80.942529          16004 
    235000   3395.8529      903987.62      1520.6432      903796.27      901139.04      907027.55     -2343.6389      591.35372     -6093.9869      7024.4919      11098.64       18123.132      132373.94      40.450525      40.450525      80.901051          16004 
    236000   3457.6055      893636.13      1527.399       892401.26      895331.65      893175.47      910.93986      82.480714     -136.61384      7152.2301      10866.361      18018.591      132646.9       40.47831       40.47831       80.95662           16004 
    237000   3396.4989      908622.52      1534.1566      909870.33      907388.88      908608.35     -10004.971      572.49126      3168.2866      7025.8281      11115.456      18141.284      132251.35      40.438035      40.438035      80.876069          16004 
    238000   3382.6235      897196.81      1540.913       899646.53      895641.04      896302.84      5460.6581      2802.0416      2252.3132      6997.1261      11052.527      18049.653      132516.59      40.465051      40.465051      80.930101          16004 
    239000   3366.6737      898523.99      1547.6672      897883.95      898167.16      899520.87     -3774.9569      2573.3818      2775.7095      6964.1333      11084.01       18048.143      132446.69      40.457935      40.457935      80.915869          16004 
    240000   3411.0791      899008.76      1554.4245      898044.85      898900.86      900080.58      323.22382      543.53813     -2674.5714      7055.9881      11026.036      18082.024      132474.25      40.46074       40.46074       80.92148           16004 
    241000   3404.3644      901072.87      1561.179       901215.04      901841.85      900161.71      853.05913     -3277.5449      1144.0284      7042.0982      11003.318      18045.416      132391.02      40.452266      40.452266      80.904531          16004 
    242000   3405.99        897622.22      1567.9243      897064.13      897709.05      898093.48      2662.0355     -3636.9315      121.37869      7045.461       11042.092      18087.553      132481.75      40.461504      40.461504      80.923009          16004 
    243000   3398.986       899817.82      1574.6704      898485.07      898307.56      902660.84      2588.8316     -2183.3699      531.30078      7030.9728      11000.226      18031.199      132432.83      40.456523      40.456523      80.913047          16004 
    244000   3386.2708      897268.23      1581.4217      896947.07      897759.13      897098.5       1048.1839     -2693.9094     -1402.0914      7004.6709      10995.87       18000.541      132519.29      40.465325      40.465325      80.930651          16004 
    245000   3430.5043      906230.83      1588.1745      904722.78      907057.78      906911.93      621.67588      2502.4167     -2204.8264      7096.1701      11063.526      18159.696      132338.16      40.446881      40.446881      80.893761          16004 
    246000   3386.264       899750.92      1594.9353      899374.21      897577.71      902300.85      2868.6305     -5481.2157     -1644.3114      7004.6567      10998.831      18003.488      132453.17      40.458594      40.458594      80.917187          16004 
    247000   3425.6045      896160.8       1601.6976      895690.01      897163.12      895629.27     -3141.5252      1749.5281     -1997.789       7086.0345      10966.903      18052.938      132564.5       40.469927      40.469927      80.939853          16004 
    248000   3384.7727      901018.83      1608.4584      900445.93      901179.17      901431.38     -7435.5362     -4.073126       625.5232       7001.5719      11013.396      18014.968      132392.03      40.452368      40.452368      80.904736          16004 
    249000   3402.3814      895631.46      1615.2205      894899.86      896088.37      895906.16     -4923.1979     -2697.2538      1965.0757      7037.9965      10965.111      18003.108      132524.58      40.465864      40.465864      80.931728          16004 
    250000   3353.9342      903711.57      1621.9828      904471.11      904559.1       902104.51      4225.7694     -1364.2959      3923.8843      6937.7809      11108.3        18046.081      132322.46      40.445281      40.445281      80.890561          16004 
    251000   3414.2562      895424.25      1628.745       894548.41      895493.78      896230.56      1737.2445      722.15764      474.32836      7062.56        10937.729      18000.289      132534.5       40.466874      40.466874      80.933747          16004 
    252000   3375.5546      903503.75      1635.5074      904040.16      901962.24      904508.86      2066.3277     -3063.0442     -1082.6482      6982.5039      11104.185      18086.689      132284.91      40.441455      40.441455      80.88291           16004 
    253000   3429.5827      897303.05      1642.2699      898234.67      898709.3       894965.19     -1055.8431      971.8115      -2867.1857      7094.2637      11075.55       18169.814      132506.67      40.46404       40.46404       80.928081          16004 
    254000   3384.3187      900346.94      1649.0336      904187.89      900550.14      896302.79     -4733.983       2059.1274     -4020.168       7000.6328      11026.944      18027.576      132441.58      40.457413      40.457413      80.914827          16004 
    255000   3420.1353      901744.37      1655.7957      900311.47      902073.6       902848.05      3336.9421     -2623.4431      4088.2983      7074.7212      11001.927      18076.648      132369.1       40.450032      40.450032      80.900064          16004 
    256000   3407.2567      900297.65      1662.5579      900106.91      900105.08      900680.97     -4937.6852     -156.49461     -2441.0393      7048.0812      10915.839      17963.92       132410.03      40.454201      40.454201      80.908402          16004 
    257000   3374.911       899673.93      1669.3203      899265.25      900260.48      899496.07     -332.54309      936.47339     -741.27046      6981.1724      11108.377      18089.549      132439.49      40.457201      40.457201      80.914402          16004 
    258000   3347.6227      901569.61      1676.0828      902757.48      901287.13      900664.22      1257.5845      2433.8909      1136.2723      6924.7253      11116.236      18040.962      132392.66      40.452432      40.452432      80.904865          16004 
    259000   3413.5997      901356.56      1682.8448      902609.81      902208.16      899251.7      -59.237837      9325.6638      1317.9324      7061.2021      10989.779      18050.981      132387.25      40.451881      40.451881      80.903762          16004 
    260000   3417.8268      897660.85      1689.6061      895320.25      899791.68      897870.63      725.40722      994.75289      3071.0855      7069.946       10967.477      18037.423      132504.52      40.463822      40.463822      80.927643          16004 
    261000   3397.5658      901152.53      1696.3674      899911.56      903375.36      900170.68      1475.1942      2129.8514     -1433.7384      7028.035       10952.832      17980.867      132367.82      40.449902      40.449902      80.899803          16004 
    262000   3376.2337      902975.16      1703.1291      904732.68      903530.99      900661.8      -1577.5167     -535.8837       171.33038      6983.9085      11057.56       18041.469      132325.63      40.445603      40.445603      80.891207          16004 
    263000   3399.1276      896822.42      1709.8919      897585.06      896561.11      896321.09      2424.7769     -156.38121     -2609.8965      7031.2658      11079.227      18110.493      132530.08      40.466423      40.466423      80.932846          16004 
    264000   3374.641       899283.83      1716.6441      900287.19      900089.64      897474.66     -1758.3006      433.4688      -830.1793       6980.614       11050.755      18031.369      132449.84      40.458255      40.458255      80.91651           16004 
    265000   3441.4974      900349.93      1723.4035      899550.97      901634.63      899864.19     -5188.6171     -718.90882     -3156.2178      7118.9099      11053.502      18172.412      132408.91      40.454087      40.454087      80.908175          16004 
    266000   3370.0337      898146.18      1730.1596      896436.61      898574.06      899427.87     -3655.8273      1299.3167      430.58891      6971.0836      10975.269      17946.353      132508.03      40.464179      40.464179      80.928359          16004 
    267000   3430.7577      906639.67      1736.9167      908761.11      906098.71      905059.18      1701.9841     -951.09349     -1696.7122      7096.6942      11101.296      18197.99       132277.34      40.440684      40.440684      80.881367          16004 
    268000   3363.0909      890249.86      1743.6748      889570.06      890584.96      890594.56      1473.6374     -2983.3065     -443.55263      6956.7221      10907.765      17864.487      132669.57      40.480616      40.480616      80.961232          16004 
    269000   3434.1687      904991.05      1750.4345      905086.94      904643.54      905242.68      1166.369      -254.07748      4979.7201      7103.75        11067.952      18171.702      132353.96      40.44849       40.44849       80.896981          16004 
    270000   3402.3696      901364.86      1757.1893      900990.46      901804.12      901300.02      2088.9818      1377.8094     -717.21144      7037.9719      11004.871      18042.843      132409.3       40.454127      40.454127      80.908254          16004 
    271000   3378.6158      899999.38      1763.9436      900497.21      898152.03      901348.9       1434.4905      1340.1494      307.21202      6988.8362      11056.039      18044.875      132474.48      40.460764      40.460764      80.921527          16004 
    272000   3393.7862      904174.54      1770.6964      901895.17      904271.48      906356.95      608.25989      2376.1686     -4796.9467      7020.2168      11038.582      18058.799      132341.51      40.447222      40.447222      80.894444          16004 
    273000   3400.9962      895924.26      1777.4483      890428.27      897981.76      899362.76     -3195.6771      10.871687      2766.7236      7035.1311      10957.485      17992.616      132561.67      40.469639      40.469639      80.939277          16004 
    274000   3394.8801      904916.26      1784.1989      906278.5       903903         904567.29      33.122782      1248.6907     -1720.4094      7022.4795      10998.917      18021.396      132321.16      40.445149      40.445149      80.890298          16004 
    275000   3412.8993      896741.37      1790.9506      897193.85      894084.15      898946.11      3498.8859      1900.7586      703.83152      7059.7532      10964.616      18024.369      132505.13      40.463884      40.463884      80.927768          16004 
    276000   3357.2044      901051.74      1797.701       901209.39      900354.9       901590.94      4523.2037      826.01614     -425.88531      6944.5455      11099.34       18043.886      132433         40.45654       40.45654       80.91308           16004 
    277000   3430.1688      902376.67      1804.4466      902880.24      903822.01      900427.78      2476.5311     -6077.4398     -4377.3128      7095.4761      11020.099      18115.575      132412.77      40.454481      40.454481      80.908961          16004 
    278000   3406.2002      894846         1811.1942      893587.47      895333.94      895616.59     -680.6455       2077.4965     -764.2129       7045.8957      11000.905      18046.8        132566.17      40.470096      40.470096      80.940192          16004 
    279000   3368.1268      906751.13      1817.9437      908507.13      905761.74      905984.54      384.15032     -4404.6235     -1365.959       6967.139       11078.466      18045.605      132252.18      40.438119      40.438119      80.876237          16004 
    280000   3408.2587      895386.44      1824.6956      894081.28      897698.4       894379.63      531.36171      1443.3207      3604.1226      7050.1539      10970.798      18020.952      132565.8       40.470058      40.470058      80.940117          16004 
    281000   3446.0349      902679.08      1831.4588      903644.01      901790.44      902602.79      175.10211      1192.0477      679.91289      7128.2959      11113.363      18241.659      132380.18      40.451161      40.451161      80.902323          16004 
    282000   3385.6016      898239.75      1838.2206      897857.94      897858.5       899002.79     -582.75061      1701.1744     -1220.9712      7003.2865      11013.994      18017.281      132448.38      40.458106      40.458106      80.916213          16004 
    283000   3418.1186      900100.95      1844.9807      898192.8       901557.92      900552.15      1023.0192      523.69829     -2592.5829      7070.5495      11055.394      18125.944      132482.85      40.461616      40.461616      80.923232          16004 
    284000   3404.2535      900489.09      1851.7422      901240.6       900278.91      899947.74     -2010.0505     -1723.5586      1880.512       7041.8689      10964.012      18005.881      132363.92      40.449505      40.449505      80.899009          16004 
    285000   3405.2948      894708.75      1858.5025      895085.97      896534.88      892505.4       125.03538      2838.7577      584.52021      7044.023       10958.166      18002.189      132613.21      40.474883      40.474883      80.949766          16004 
    286000   3402.907       908579.74      1865.264       910912.78      907492.77      907333.67     -3023.5251     -2156.8664     -4713.1227      7039.0836      11097.224      18136.307      132237.62      40.436635      40.436635      80.873271          16004 
[...]
   3930000   4434.5849      895804.31      7019.4519      900489.09      902642.15      884281.69     -57352.722      3210.7763     -3479.3612      9173.1611      22118.259      31291.42       119254.56      39.309702      39.309702      77.174793          16004 
   3931000   4445.6614      892857.39      7026.9231      897785.01      900181.64      880605.53     -55813.067     -179.351        2856.3537      9196.0734      22109.611      31305.684      119227.36      39.306713      39.306713      77.168926          16004 
   3932000   4486.192       901624.59      7034.3857      905738.78      908900.36      890234.61     -60319.817     -6787.5189      1938.2947      9279.9129      22136.524      31416.437      119027.59      39.284748      39.284748      77.125803          16004 
   3933000   4418.6913      903884.29      7041.8575      910221.4       909385.06      892046.4      -56561.704     -2031.2704     -6511.1796      9140.2843      22276.775      31417.059      119026.09      39.284583      39.284583      77.125478          16004 
   3934000   4447.7496      893193.78      7049.3232      896055.65      901380.44      882145.25     -58121.911      5560.9689     -114.94155      9200.393       22074.328      31274.721      119278.56      39.312339      39.312339      77.17997           16004 
   3935000   4501.2757      898549.05      7056.7931      904613.12      906256.17      884777.86     -59977.823     -2455.2238      10338.437      9311.1144      22105.797      31416.911      119023.6       39.284309      39.284309      77.124942          16004 
   3936000   4447.1637      905556.16      7064.2615      909380.03      914209.53      893078.92     -59751.178     -1149.7718     -5984.0092      9199.1809      22244.685      31443.866      118972.85      39.278725      39.278725      77.113979          16004 
   3937000   4455.9121      898036.26      7071.7275      899395.15      905077.91      889635.71     -59964.353      1248.7936     -4931.2802      9217.2774      22088.563      31305.84       119217.75      39.305658      39.305658      77.166853          16004 
   3938000   4427.8124      897456.65      7079.2017      904046.96      902106.61      886216.4      -59360.529      361.65548      8962.7992      9159.1519      22220.064      31379.216      119085.2       39.291085      39.291085      77.138244          16004 
   3939000   4476.4151      904736.61      7086.668       914628.23      907622.46      891959.14     -59570.432      1920.5209      6888.916       9259.6888      22217.194      31476.883      118910.6       39.271873      39.271873      77.100527          16004 
   3940000   4474.4422      897821.02      7094.1337      904729.93      904950.62      883782.51     -63545.176      235.9911      -8255.9069      9255.6078      22116.011      31371.618      119094.36      39.292093      39.292093      77.140222          16004 
   3941000   4427.3327      899529.38      7101.6004      903820.69      907452.75      887314.71     -57711.086     -5584.168      -1300.5613      9158.1594      22186.351      31344.51       119142.43      39.297378      39.297378      77.150598          16004 
   3942000   4460.3509      894180.41      7109.0619      903324.74      897479.28      881737.2      -59428.125      825.92481      5254.1642      9226.4593      22074.297      31300.756      119219.58      39.305858      39.305858      77.167247          16004 
   3943000   4411.1859      902194.18      7116.5288      909175.91      908783.54      888623.08     -55484.742      1239.9614     -2260.3343      9124.759       22266.903      31391.662      119056.33      39.28791       39.28791       77.13201           16004 
   3944000   4428.4599      896215.07      7123.9942      902334.91      900643.51      885666.79     -66119.731      2453.3828     -8494.8305      9160.4911      22151.117      31311.608      119195.91      39.303257      39.303257      77.16214           16004 
   3945000   4435.6621      906750.28      7131.4608      914588.49      912428.48      893233.85     -58412.1       -1610.2032      13.706081      9175.3893      22292.342      31467.732      118918.17      39.272707      39.272707      77.102162          16004 
   3946000   4418.3601      900268.41      7138.9234      907523.3       902242.17      891039.76     -59722.654     -1727.4381     -260.57037      9139.5992      22203.151      31342.751      119139.44      39.297049      39.297049      77.149953          16004 
   3947000   4464.7713      891093.27      7146.3865      897476.87      891758.5       884044.43     -56478.844      3504.7141      2139.6085      9235.6031      22019.311      31254.914      119295.28      39.314176      39.314176      77.183578          16004 
   3948000   4486.4858      903496.34      7153.846       912640.36      906273.44      891575.22     -57822.207     -1848.4469      574.27444      9280.5207      22174.353      31454.873      118938.73      39.274969      39.274969      77.106604          16004 
   3949000   4416.8182      894677.55      7161.3081      899361.62      904834.2       879836.82     -57668.657      3995.1105      9749.2159      9136.4098      22161.469      31297.879      119217.69      39.30565       39.30565       77.166839          16004 
   3950000   4429.2697      898045.92      7168.772       900882.78      900689.62      892565.36     -57638.727     -7476.2026      2094.4093      9162.1664      22157.03       31319.197      119178.81      39.301377      39.301377      77.15845           16004 
   3951000   4474.08        906344.06      7176.2424      916657.43      909510.53      892864.22     -59693.442     -7374.5015     -2437.7484      9254.8587      22188.94       31443.798      118956.25      39.276898      39.276898      77.11039           16004 
   3952000   4488.7292      894675.68      7183.7118      901428.22      897148.35      885450.48     -57335.036      1406.5185     -3019.7479      9285.1611      22046.32       31331.481      119155.33      39.298796      39.298796      77.153382          16004 
   3953000   4444.3493      899260.61      7191.1769      907238.75      909148.6       881394.47     -58952.239      2065.6001     -1888.0409      9193.3591      22214.939      31408.298      119017.08      39.283592      39.283592      77.123532          16004 
   3954000   4479.5754      901344.81      7198.6441      905527.92      906392.14      892114.37     -61848.277     -3860.269       2552.8931      9266.2261      22156.127      31422.353      118991.31      39.280757      39.280757      77.117967          16004 
   3955000   4435.8419      893798.26      7206.1101      898069.8       902711.16      880613.82     -53383.323     -4843.1319     -599.62965      9175.7612      22140.009      31315.77       119180.37      39.301549      39.301549      77.158787          16004 
   3956000   4431.564       897329.75      7213.579       899680.18      902776.24      889532.82     -58196.146     -89.291217     -2302.6488      9166.9121      22163.446      31330.358      119153.04      39.298544      39.298544      77.152888          16004 
   3957000   4450.386       905886.17      7221.0466      914739.62      908252.7       894666.18     -60431.98      -560.92151      2074.476       9205.8463      22250.386      31456.232      118929.5       39.273954      39.273954      77.10461           16004 
   3958000   4411.6508      898952.66      7228.5094      903155.51      901955.66      891746.8      -61929.737     -231.40509      4240.6373      9125.7208      22174.105      31299.826      119205.44      39.304305      39.304305      77.164197          16004 
   3959000   4497.5561      898462.43      7235.9711      901102.84      904600         889684.46     -61550.085      1173.8644     -1146.0665      9303.4201      22070.351      31373.771      119072.89      39.289731      39.289731      77.135585          16004 
   3960000   4403.7891      901753.64      7243.4378      907980.91      908656.04      888623.97     -59516.901      2532.515      -2783.6912      9109.4584      22263.22       31372.678      119071.22      39.289547      39.289547      77.135225          16004 
   3961000   4416.5779      890955.86      7250.9058      895198.49      894726.86      882942.23     -57845.241     -788.2361      -1377.0278      9135.9126      22103.808      31239.72       119306.34      39.315391      39.315391      77.185963          16004 
   3962000   4430.0535      902789.66      7258.3717      905339.67      912093.46      890935.83     -62127.793      4788.5999     -1318.522       9163.7877      22254.531      31418.318      118986.15      39.280189      39.280189      77.116852          16004 
   3963000   4421.6803      896253.19      7265.8392      898144.47      903793.54      886821.55     -59898.058     -2179.0931      4631.9652      9146.4673      22138.996      31285.463      119221.07      39.306023      39.306023      77.16757           16004 
   3964000   4442.8562      907625.84      7273.3074      911022.92      918744.79      893109.81     -60253.092     -1132.1573     -498.26018      9190.2705      22277.761      31468.032      118896.02      39.270268      39.270268      77.097375          16004 
   3965000   4426.1109      907333.97      7280.7755      910585.65      909640.08      901776.17     -57913.975     -413.32961     -8915.5999      9155.6322      22279.048      31434.68       118955.37      39.276801      39.276801      77.1102            16004 
   3966000   4434.2917      891294.21      7288.2414      897311.31      895458.53      881112.78     -57658.053     -3031.0849      535.37256      9172.5546      22094.977      31267.532      119251.98      39.309419      39.309419      77.174239          16004 
   3967000   4465.2925      903183.49      7295.7079      908532.15      911868.31      889150.02     -58567.594     -547.23825      4082.3271      9236.6812      22189.169      31425.85       118967.44      39.278129      39.278129      77.112808          16004 
   3968000   4453.3006      903751.38      7303.1778      906140.82      911769.49      893343.83     -58239.797      5362.0771     -4187.9373      9211.8754      22175.926      31387.801      119033.36      39.285383      39.285383      77.127049          16004 
   3969000   4425.4415      898328.8       7310.6428      903449.88      903221.9       888314.61     -61191.408      338.9029      -6310.605       9154.2475      22135.835      31290.083      119205.86      39.304351      39.304351      77.164288          16004 
   3970000   4445.1799      904991.25      7318.1077      911392.35      908623.83      894957.56     -60152.16       5962.1094      2625.8219      9195.0774      22203.938      31399.015      119011.33      39.282959      39.282959      77.12229           16004 
   3971000   4466.9562      898947.65      7325.5731      903371.89      912394.48      881076.57     -60102.422     -2205.8296      917.18324      9240.1226      22112.936      31353.059      119092.06      39.29184       39.29184       77.139726          16004 
   3972000   4494.4119      897334.71      7333.0402      902433.56      904940.55      884630.01     -61031.778      1097.9721     -996.09408      9296.9162      22081.076      31377.992      119046.97      39.28688       39.28688       77.129989          16004 
   3973000   4497.1808      898149.81      7340.5109      903051.82      907036.3       884361.31     -63021.277      3814.7014      5459.6772      9302.6438      22016.44       31319.083      119151.23      39.298346      39.298346      77.152498          16004 
   3974000   4461.2861      899361.31      7347.9758      907958.2       907542.65      882583.08     -60352.147      2487.9423     -3011.9213      9228.3938      22127.733      31356.127      119082.91      39.290833      39.290833      77.13775           16004 
   3975000   4458.838       897011.37      7355.4421      904472.01      903777.36      882784.74     -57128.211      2532.2068      337.16864      9223.3299      22125.879      31349.209      119093.83      39.292034      39.292034      77.140107          16004 
   3976000   4456.2155      900972.32      7362.9065      912054.61      902795.42      888066.93     -58981.817     -7078.5098     -2817.715       9217.905       22139.456      31357.362      119079.36      39.290443      39.290443      77.136982          16004 
   3977000   4437.6197      904708.63      7370.3695      907591.96      913496.51      893037.42     -63772.024     -1443.2048      2377.9371      9179.4386      22228.777      31408.215      118987.4       39.280326      39.280326      77.117122          16004 
   3978000   4421.9367      900374.5       7377.8355      907513.97      903762.97      889846.56     -60020.76       2852.1086     -5535.3332      9146.9977      22202.424      31349.421      119090.44      39.291661      39.291661      77.139375          16004 
   3979000   4448.9327      899944.46      7385.298       906495.82      907605.12      885732.44     -59283.913      1264.0529     -2646.6739      9202.8401      22181.081      31383.921      119028.14      39.284808      39.284808      77.125921          16004 
   3980000   4492.7412      906739.66      7392.764       909655.5       913616.32      896947.16     -60315.828     -635.42566      4754.5292      9293.4603      22194.72       31488.18       118842.69      39.264396      39.264396      77.085846          16004 
   3981000   4440.712       896033.54      7400.2266      898664.16      903560.27      885876.19     -58050.405     -1498.37        1996.0818      9185.8353      22131.915      31317.75       119145.06      39.297668      39.297668      77.151167          16004 
   3982000   4465.563       903186.52      7407.6854      909835.12      910343.31      889381.13     -64198.665      3583.3878     -2863.5729      9237.2407      22177.575      31414.815      118970.69      39.278487      39.278487      77.113511          16004 
   3983000   4450.076       899547         7415.1504      906107.3       905576.65      886957.06     -60895.84       5500.7904      540.95202      9205.2052      22155.203      31360.408      119065.42      39.288909      39.288909      77.133972          16004 
   3984000   4431.1191      901410.1       7422.6117      907486.57      904955.85      891787.87     -58324.3       -1983.8627      363.66881      9165.9919      22186.869      31352.86       119077.29      39.290215      39.290215      77.136535          16004 
   3985000   4450.7512      900109.8       7430.0771      904579.35      902962.72      892787.32     -60319.289      2393.8994      3703.1346      9206.6019      22164.719      31371.321      119043.72      39.286523      39.286523      77.129286          16004 
   3986000   4417.5726      898061.98      7437.5426      906223.97      903528.26      884433.7      -61452.836     -7605.8109     -579.1619       9137.9702      22174.098      31312.068      119148.14      39.298006      39.298006      77.151831          16004 
   3987000   4422.6909      900643.82      7445.018       905631.65      905644.61      890655.19     -52052.227     -3096.4736     -2547.1796      9148.5576      22215.318      31363.876      119054.56      39.287714      39.287714      77.131626          16004 
   3988000   4452.3387      904970.78      7452.4876      909922.19      914467.48      890522.66     -60501.465      4235.3034     -4060.5057      9209.8857      22219.099      31428.984      118936.82      39.274759      39.274759      77.106191          16004 
   3989000   4424.0079      899163.72      7459.9544      903344.38      906253.95      887892.83     -58467.983     -993.07827     -2196.5643      9151.2819      22169.497      31320.779      119128.14      39.295807      39.295807      77.147515          16004 
   3990000   4396.5995      899675.8       7467.4233      902110.27      906094.39      890822.75     -58062.919      907.1162      -1144.3587      9094.5863      22247.064      31341.651      119090.64      39.291683      39.291683      77.139418          16004 
   3991000   4427.04        901339.23      7474.8881      908374.16      906131.8       889511.73     -59965.822     -1023.8277      4949.799       9157.554       22213.947      31371.501      119036.72      39.285752      39.285752      77.127774          16004 
   3992000   4445.4701      901671.1       7482.3595      907374.28      908189.35      889449.68     -63311.215      1682.7234      5665.6054      9195.6777      22169.84       31365.517      119043.83      39.286535      39.286535      77.129311          16004 
   3993000   4427.6557      900634.4       7489.8337      910740.24      907336.78      883826.17     -57844.52       3304.6745     -788.46654      9158.8276      22194.734      31353.561      119064.56      39.288815      39.288815      77.133787          16004 
   3994000   4471.67        899105.41      7497.3041      903380.44      902955.72      890980.05     -54526.779      2587.8184     -3246.1711      9249.8734      22075.716      31325.59       119112.27      39.294062      39.294062      77.144088          16004 
   3995000   4466.1367      900594.16      7504.7767      908332.73      907647.75      885802.01     -59782.56      -1351.7526      5176.0106      9238.4274      22122.905      31361.332      119048.84      39.287085      39.287085      77.130391          16004 
   3996000   4418.0617      904350.47      7512.2414      912588.79      911265.93      889196.68     -60552.7       -411.56989      2470.6314      9138.982       22244.061      31383.043      119007.64      39.282553      39.282553      77.121494          16004 
   3997000   4449.3956      895603.62      7519.7149      903684.32      899948.6       883177.93     -59816.247      1851.6326      614.99565      9203.7976      22097.978      31301.776      119152.05      39.298436      39.298436      77.152676          16004 
   3998000   4462.4014      907126.19      7527.1852      918682.96      914648.18      888047.44     -63022.458      4170.7736      1561.0716      9230.7009      22238.668      31469.369      118853.7       39.265609      39.265609      77.088227          16004 
   3999000   4432.3918      894216.57      7534.658       897781.61      899948.37      884919.74     -55317.168     -2411.2699     -3371.1623      9168.6245      22097.933      31266.558      119213.57      39.305198      39.305198      77.16595           16004 
   4000000   4454.8814      899977.41      7542.1359      908178.03      906658.45      885095.74     -62294.651      471.75973     -283.02489      9215.1453      22116.407      31331.552      119095.21      39.292185      39.292185      77.140404          16004 
Loop time of 7542.14 on 8 procs for 1000000 steps with 16004 atoms

Performance: 5.728 ns/day, 4.190 hours/ns, 132.588 timesteps/s
61.1% CPU use with 1 MPI tasks x 8 OpenMP threads

MPI task timing breakdown:
Section |  min time  |  avg time  |  max time  |%varavg| %total
---------------------------------------------------------------
Pair    | 7256.4     | 7256.4     | 7256.4     |   0.0 | 96.21
Neigh   | 13.078     | 13.078     | 13.078     |   0.0 |  0.17
Comm    | 41.382     | 41.382     | 41.382     |   0.0 |  0.55
Output  | 1.2948     | 1.2948     | 1.2948     |   0.0 |  0.02
Modify  | 205.04     | 205.04     | 205.04     |   0.0 |  2.72
Other   |            | 24.96      |            |       |  0.33

Nlocal:          16004 ave       16004 max       16004 min
Histogram: 1 0 0 0 0 0 0 0 0 0
Nghost:          15608 ave       15608 max       15608 min
Histogram: 1 0 0 0 0 0 0 0 0 0
Neighs:              0 ave           0 max           0 min
Histogram: 1 0 0 0 0 0 0 0 0 0
FullNghs:  1.92567e+06 ave 1.92567e+06 max 1.92567e+06 min
Histogram: 1 0 0 0 0 0 0 0 0 0

Total # of neighbors = 1925672
Ave neighs/atom = 120.32442
Neighbor list builds = 33342
Dangerous builds = 0
Total wall time: 8:07:51
