
atom_style atomic
units metal
boundary p p p
#atom_modify sort 0 0.0
newton on

read_data data.lammps
Reading data file ...
  orthogonal box = (0 0 0) to (43.790145 43.790145 87.58029)
  1 by 1 by 1 MPI processor grid
  reading atoms ...
  16004 atoms
  read_data CPU = 0.041 seconds
# replicate 10 10 20

### interactions

pair_style flare
pair_coeff * * lmp.flare
Reading potential file lmp.flare with DATE: Thu

# compute unc all flare/std/atom L_inv_lmp.flare sparse_desc_lmp.flare
# compute MaxUnc all reduce max c_unc

mass 1 12.011000
mass 2 28.085000

thermo_style custom step temp press cpu pxx pyy pzz pxy pxz pyz ke pe etotal vol lx ly lz atoms    #c_MaxUnc
thermo 1000
timestep 0.0005
restart 100000 restart_*.dat

#################### Equilibrate at P and T_es ##############################
velocity all create $T 41928459 rot yes dist gaussian
velocity all create 3400 41928459 rot yes dist gaussian
fix mom all momentum 1000 linear 1 1 1 angular

fix 1 all npt temp $T $T $(100.0*dt) iso $P $P $(1000.0*dt)
fix 1 all npt temp 3400 $T $(100.0*dt) iso $P $P $(1000.0*dt)
fix 1 all npt temp 3400 3400 $(100.0*dt) iso $P $P $(1000.0*dt)
fix 1 all npt temp 3400 3400 0.050000000000000002776 iso $P $P $(1000.0*dt)
fix 1 all npt temp 3400 3400 0.050000000000000002776 iso 100000 $P $(1000.0*dt)
fix 1 all npt temp 3400 3400 0.050000000000000002776 iso 100000 100000 $(1000.0*dt)
fix 1 all npt temp 3400 3400 0.050000000000000002776 iso 100000 100000 0.5
dump 1 all custom 1000 1equil.bin id type x y z vx vy vz
run   10000 # report performance
Neighbor list info ...
  update every 1 steps, delay 10 steps, check yes
  max neighbors/atom: 2000, page size: 100000
  master list distance cutoff = 6
  ghost atom cutoff = 6
  binsize = 6, bins = 8 8 15
  1 neighbor lists, perpetual/occasional/extra = 1 0 0
  (1) pair flare/kk, perpetual
      attributes: full, newton on, kokkos_device
      pair build: full/bin/kk/device
      stencil: full/bin/3d
      bin: kk/device
Per MPI rank memory allocation (min/avg/max) = 15.9 | 15.9 | 15.9 Mbytes
   Step          Temp          Press           CPU            Pxx            Pyy            Pzz            Pxy            Pxz            Pyz           KinEng         PotEng         TotEng         Volume           Lx             Ly             Lz          Atoms   
         0   3400           64926.693      0              64530.624      64954.416      65295.038     -818.57267      21.423832     -526.49983      7033.0703     -4000.2205      3032.8498      167941.93      43.790145      43.790145      87.58029           16004 
      1000   3339.1523      97598.797      6.3303142      97397.907      97814.336      97584.149     -1319.6349      436.10129      1113.0123      6907.2039      3725.4499      10632.654      170453.38      44.007349      44.007349      88.014699          16004 
      2000   3411.0781      96828.731      12.607446      97452.88       96320.92       96712.392     -489.2714       1602.3824      2088.452       7055.986       3987.1767      11043.163      170878.98      44.043946      44.043946      88.087891          16004 
      3000   3367.9297      101597.85      18.881223      100867.28      101366.02      102560.25      389.77923      411.83134      1968.0773      6966.7314      3723.407       10690.138      170317.37      43.995641      43.995641      87.991282          16004 
      4000   3419.7948      98645.98       25.156106      97379.571      100458.76      98099.614      1792.1983      552.34697      973.82396      7074.0169      3859.8279      10933.845      170627.65      44.022341      44.022341      88.044683          16004 
      5000   3387.6717      97592.004      31.429297      97744.819      98005.567      97025.626     -1590.2097      1092.2487      574.75007      7007.5686      3837.5339      10845.102      170575.07      44.017819      44.017819      88.035639          16004 
      6000   3401.3554      98715.33       37.703582      98128.4        98605.032      99412.558      95.65389       636.89745     -1063.3258      7035.8741      3757.9139      10793.788      170660.42      44.025159      44.025159      88.050319          16004 
      7000   3409.5685      96020.98       43.977299      97339.262      95341.193      95382.483      3530.019      -1445.6683     -1176.0923      7052.8633      3873.8009      10926.664      170853.6       44.041765      44.041765      88.08353           16004 
      8000   3384.979       97254.789      50.250261      97059.149      96768.948      97936.271     -76.01551       145.23824      322.89692      7001.9987      3780.2947      10782.293      170727.72      44.030946      44.030946      88.061891          16004 
      9000   3400.746       97136.869      56.524617      97060.575      96257.721      98092.309      1896.562       393.07318      975.68027      7034.6135      3805.4392      10840.053      170734.8       44.031554      44.031554      88.063109          16004 
     10000   3417.5013      96081.377      62.798433      94519.132      96794.337      96930.661     -1382.9798     -2350.9968      2822.3716      7069.2727      3790.5499      10859.823      170844.36      44.040971      44.040971      88.081942          16004 
Loop time of 62.7984 on 8 procs for 10000 steps with 16004 atoms

Performance: 6.879 ns/day, 3.489 hours/ns, 159.240 timesteps/s
61.8% CPU use with 1 MPI tasks x 8 OpenMP threads

MPI task timing breakdown:
Section |  min time  |  avg time  |  max time  |%varavg| %total
---------------------------------------------------------------
Pair    | 59.848     | 59.848     | 59.848     |   0.0 | 95.30
Neigh   | 0.087739   | 0.087739   | 0.087739   |   0.0 |  0.14
Comm    | 0.33858    | 0.33858    | 0.33858    |   0.0 |  0.54
Output  | 0.012091   | 0.012091   | 0.012091   |   0.0 |  0.02
Modify  | 2.264      | 2.264      | 2.264      |   0.0 |  3.61
Other   |            | 0.2484     |            |       |  0.40

Nlocal:          16004 ave       16004 max       16004 min
Histogram: 1 0 0 0 0 0 0 0 0 0
Nghost:          13606 ave       13606 max       13606 min
Histogram: 1 0 0 0 0 0 0 0 0 0
Neighs:              0 ave           0 max           0 min
Histogram: 1 0 0 0 0 0 0 0 0 0
FullNghs:  1.37657e+06 ave 1.37657e+06 max 1.37657e+06 min
Histogram: 1 0 0 0 0 0 0 0 0 0

Total # of neighbors = 1376568
Ave neighs/atom = 86.013997
Neighbor list builds = 295
Dangerous builds = 0
run  990000
Per MPI rank memory allocation (min/avg/max) = 15.97 | 15.97 | 15.97 Mbytes
   Step          Temp          Press           CPU            Pxx            Pyy            Pzz            Pxy            Pxz            Pyz           KinEng         PotEng         TotEng         Volume           Lx             Ly             Lz          Atoms   
     10000   3417.5013      96081.377      0              94519.132      96794.337      96930.661     -1382.9798     -2350.9968      2822.3716      7069.2727      3790.5499      10859.823      170844.36      44.040971      44.040971      88.081942          16004 
     11000   3375.5253      99872.773      6.2737352      99094.632      101389.87      99133.817      231.84876     -319.04786     -1274.7099      6982.4432      3808.9491      10791.392      170617.02      44.021428      44.021428      88.042855          16004 
     12000   3415.721       99410.365      12.544652      99892.385      97278.303      101060.41      37.294485     -1213.1535      1368.5475      7065.59        3827.7772      10893.367      170663.41      44.025416      44.025416      88.050833          16004 
     13000   3411.7057      98385.453      18.817164      98497.652      99866.009      96792.698      1548.4682      260.9967       670.96865      7057.2842      3810.1748      10867.459      170661.04      44.025213      44.025213      88.050426          16004 
     14000   3401.4053      100573.75      25.089385      100625.52      100819         100276.73      1590.0922     -1285.3427     -996.05355      7035.9772      3807.8258      10843.803      170448.01      44.006887      44.006887      88.013773          16004 
     15000   3411.7279      100934.92      31.361391      99920.263      102198.3       100686.19     -2505.5393     -121.20194      6.2705838      7057.3301      3869.9712      10927.301      170493.07      44.010765      44.010765      88.02153           16004 
     16000   3367.4661      104152.72      37.652007      103862.87      103918         104677.28      1372.0729     -1198.8815      616.37428      6965.7723      3813.8631      10779.635      170197.14      43.985286      43.985286      87.970572          16004 
     17000   3455.3287      101288.59      43.924877      100776.49      102882.34      100206.94     -959.21486     -762.45518     -908.0584       7147.5206      3904.9849      11052.506      170599.62      44.01993       44.01993       88.039861          16004 
     18000   3383.0811      100405.73      50.205428      101426.99      98986.244      100803.96     -840.8876      -1034.9766     -3286.8632      6998.0728      3908.8104      10906.883      170591.62      44.019243      44.019243      88.038486          16004 
     19000   3357.5619      99507.661      56.517972      98295.649      100534.8       99692.534      951.5936       165.68171     -2455.278       6945.2851      3849.109       10794.394      170518.25      44.012931      44.012931      88.025862          16004 
     20000   3406.895       95748.394      62.835549      95919.49       94970.702      96354.989      1034.9891      21.335822      1098.0573      7047.3329      3897.0124      10944.345      171009.55      44.055161      44.055161      88.110321          16004 
     21000   3373.0557      98572.815      69.154588      98601.097      98853.954      98263.392      827.68453      179.28244     -874.08269      6977.3347      3818.8724      10796.207      170657.91      44.024944      44.024944      88.049888          16004 
     22000   3385.641       97096.54       75.501356      95892.985      98335.454      97061.181      706.32065     -925.76962     -1691.3979      7003.3681      3864.7502      10868.118      170856.84      44.042043      44.042043      88.084087          16004 
     23000   3360.7031      98825.059      81.846332      99226.842      97649.903      99598.433      1303.2287      845.71416      1117.1684      6951.7827      3784.5368      10736.32       170587.46      44.018885      44.018885      88.037769          16004 
     24000   3397.0339      95700.387      88.190659      95320.345      94673.641      97107.174      588.59976      1055.6689     -523.83163      7026.9348      3854.8467      10881.782      170882.44      44.044243      44.044243      88.088485          16004 
     25000   3415.9418      98975.846      94.54867       98826.503      99128.852      98972.183      1327.1861     -808.9112       1941.1262      7066.0467      3761.2597      10827.306      170635.96      44.023056      44.023056      88.046112          16004 
     26000   3396.1244      102226.31      100.90002      102153.44      102257.38      102268.1      -195.18513     -2432.4097     -1816.8573      7025.0534      3876.9713      10902.025      170488.11      44.010337      44.010337      88.020675          16004 
     27000   3372.5928      100647.94      107.25068      101827.36      100214.28      99902.192     -676.80132      1119.3998      336.36653      6976.3772      3896.4453      10872.823      170540.21      44.01482       44.01482       88.02964           16004 
     28000   3435.7634      100988.37      113.61758      102125.13      99621.423      101218.57      1116.2784     -490.51533     -1175.0836      7107.0487      3872.5682      10979.617      170502.62      44.011587      44.011587      88.023173          16004 
     29000   3401.1361      102637.38      119.97362      101827.99      103582.16      102501.98      16.280367     -652.76466      85.71374       7035.4204      3784.1068      10819.527      170414.02      44.003961      44.003961      88.007923          16004 
     30000   3391.542       99416.502      126.32027      98945.373      100011.19      99292.943      65.665029      323.32195     -1309.718       7015.5746      3823.9424      10839.517      170563.23      44.0168        44.0168        88.0336            16004 
     31000   3445.0428      99422.611      132.67152      99011.838      99878.74       99377.255     -213.04506      2079.2622     -727.02771      7126.2437      3897.1504      11023.394      170621.73      44.021833      44.021833      88.043665          16004 
     32000   3374.4262      101827.94      139.02522      101571.12      101973.48      101939.22      252.43206     -373.33388     -1670.9354      6980.1698      3867.5887      10847.758      170391.76      44.002046      44.002046      88.004091          16004 
     33000   3414.3253      103674.33      145.3794       103520.2       102701.64      104801.15     -1762.8806     -822.21589      426.24369      7062.7029      3807.9719      10870.675      170224.55      43.987648      43.987648      87.975295          16004 
     34000   3366.118       105621.7       151.7488       105061.41      105965.9       105837.79     -2272.2944      156.89219      1124.2482      6962.9838      3786.4383      10749.422      169982.6       43.966796      43.966796      87.933592          16004 
     35000   3432.8989      100190.85      158.11688      100419.77      101305.69      98847.099      642.60067      488.93863      66.131036      7101.1234      3812.5331      10913.657      170528.32      44.013798      44.013798      88.027595          16004 
     36000   3381.0918      100740.97      164.46463      101167.4       100324.21      100731.31     -742.27837      210.05857      10.733012      6993.9578      3821.0186      10814.976      170469.44      44.008731      44.008731      88.017461          16004 
     37000   3393.8986      99133.681      170.81         100093.92      97750.818      99556.305      1703.736       443.60765      1023.6427      7020.4494      3906.6121      10927.062      170725.12      44.030723      44.030723      88.061445          16004 
     38000   3399.6599      98373.42       177.16692      98220.449      98531.607      98368.204      1683.1499     -1227.9788     -1828.7609      7032.3669      3813.0517      10845.419      170656.34      44.024809      44.024809      88.049618          16004 
     39000   3412.9531      102466.1       183.51912      103081.06      102317.1       102000.15     -729.06402      648.16729     -1617.0055      7059.8646      3792.1971      10852.062      170350.93      43.998531      43.998531      87.997061          16004 
     40000   3392.737       102946.58      189.88108      101817.13      104203.88      102818.75     -2450.2877     -435.10459      1153.8037      7018.0465      3823.5431      10841.59       170361.04      43.999401      43.999401      87.998802          16004 
     41000   3402.3329      100099.8       196.25325      100793.81      99321.238      100184.35     -938.27475     -1557.6114      27.851656      7037.8961      3859.8403      10897.736      170592.58      44.019325      44.019325      88.038651          16004 
     42000   3371.575       99785.016      202.60724      99856.908      99451.724      100046.42      905.81545     -1308.4786      295.63924      6974.2718      3874.2733      10848.545      170670.06      44.025988      44.025988      88.051977          16004 
     43000   3370.9443      99940.845      208.95749      99124.406      100751.43      99946.693      616.65142     -1206.0143      1725.9469      6972.9671      3825.5223      10798.489      170436.18      44.005869      44.005869      88.011738          16004 
     44000   3415.361       98108.404      215.30443      98114.386      98021.657      98189.17       118.66662      1449.6333      109.14645      7064.8454      3806.3913      10871.237      170631.69      44.022689      44.022689      88.045378          16004 
     45000   3371.8268      97707.293      221.65569      96595.446      98256.565      98269.869      586.14424     -46.932527     -111.34396      6974.7927      3779.2816      10754.074      170725.29      44.030737      44.030737      88.061474          16004 
     46000   3383.601       92959.365      228.01216      93139.322      92598.285      93140.489      787.73501     -1534.6845     -130.67254      6999.1482      3851.124       10850.272      171092.18      44.062255      44.062255      88.12451           16004 
     47000   3384.4688      98259.787      234.3813       99549.486      96670.065      98559.81       478.67933      2119.5302      793.77537      7000.9433      3783.4333      10784.377      170639.49      44.023359      44.023359      88.046719          16004 
     48000   3380.0407      99641.45       240.74395      100542.98      99501.161      98880.212     -1657.7716     -125.4986       1191.8339      6991.7836      3795.9203      10787.704      170597.31      44.019732      44.019732      88.039463          16004 
     49000   3411.0672      97957.562      247.09582      99075.644      96921.524      97875.517      999.04594      13.496773     -2280.2265      7055.9634      3807.431       10863.394      170746.62      44.03257       44.03257       88.065141          16004 
     50000   3388.8475      96833.011      253.43865      96643.021      97255.156      96600.855      1445.006       1390.7483      2830.5256      7010.0008      3845.8813      10855.882      170790.34      44.036329      44.036329      88.072658          16004 
     51000   3411.848       99805.642      259.79336      101584.78      97808.112      100024.03      417.79975     -882.88751     -179.37564      7057.5786      3837.9575      10895.536      170612.26      44.021018      44.021018      88.042036          16004 
     52000   3407.0181      101756.35      266.14572      101324.66      102235.08      101709.3       1006.2451     -424.8826       155.82744      7047.5875      3800.6393      10848.227      170462.74      44.008154      44.008154      88.016308          16004 
     53000   3408.9611      100628.82      272.50566      101055.58      101116.41      99714.46      -637.94533     -2157.0987      2404.4336      7051.6068      3738.6696      10790.276      170389.69      44.001867      44.001867      88.003734          16004 
     54000   3410.4317      98993.293      278.87715      100786.33      99042.789      97150.758      3675.2713      2213.3324      1640.2627      7054.6488      3867.5641      10922.213      170674.7       44.026388      44.026388      88.052775          16004 
     55000   3404.5896      99052.197      285.22908      97997.505      99527.971      99631.115      1733.3213      389.45965      208.24816      7042.5641      3878.8721      10921.436      170738.22      44.031848      44.031848      88.063697          16004 
     56000   3395.0863      100581.57      291.57713      100442.31      100023.97      101278.42     -516.67364      3140.5053     -156.83936      7022.9061      3770.2373      10793.143      170415.59      44.004096      44.004096      88.008192          16004 
     57000   3409.782       100796.91      297.92863      101482.27      101160.06      99748.408     -120.37715      2494.1072     -1173.2118      7053.3049      3851.4407      10904.746      170479.11      44.009563      44.009563      88.019127          16004 
     58000   3433.206       101436.37      304.27999      102166.48      100879.81      101262.81      1471.3706      2154.5169      421.48009      7101.7586      3702.2096      10803.968      170311.64      43.995147      43.995147      87.990294          16004 
     59000   3388.9535      104357.26      310.63905      105785.07      103987.28      103299.42      1609.223      -1476.6414      1519.2156      7010.2201      3847.7042      10857.924      170216.92      43.98699       43.98699       87.97398           16004 
     60000   3416.73        105445.4       317.00888      105289.15      106804.56      104242.49     -243.0754       122.43557     -386.71171      7067.6771      3837.2593      10904.936      170106.99      43.977519      43.977519      87.955037          16004 
     61000   3419.7919      100708.38      323.36724      101578         100782.42      99764.716      735.61184     -371.18273      161.00154      7074.0108      3835.0336      10909.044      170494.24      44.010865      44.010865      88.02173           16004 
     62000   3404.6575      100281.8       329.71217      100279.57      101068.35      99497.493      374.7469       1200.603      -807.77784      7042.7047      3793.1811      10835.886      170449.72      44.007034      44.007034      88.014068          16004 
     63000   3422.7502      99636.156      336.05751      99691.538      100668.77      98548.158      38.685659      943.72654     -1025.1603      7080.1303      3769.2985      10849.429      170533.03      44.014203      44.014203      88.028406          16004 
     64000   3355.2125      103820.4       342.40961      103722.98      104473.46      103264.75      860.52169     -3296.9441     -388.06252      6940.4251      3841.9444      10782.369      170244.61      43.989375      43.989375      87.978751          16004 
     65000   3438.2144      104066.24      348.76476      103643.6       104028.71      104526.4      -436.61218      1906.9726      1298.3511      7112.1187      3860.5971      10972.716      170246.69      43.989554      43.989554      87.979108          16004 
     66000   3394.3435      103299.74      355.12589      104253.01      103419.17      102227.03      1156.1396     -805.33187     -304.66609      7021.3695      3834.7748      10856.144      170316.45      43.995561      43.995561      87.991123          16004 
     67000   3393.3327      103440.97      361.49164      104157.25      103425.68      102739.97     -1111.7744     -1577.6418     -1994.1102      7019.2786      3848.9409      10868.22       170248.26      43.98969       43.98969       87.979379          16004 
     68000   3407.3056      102119.96      367.84391      102469.81      102440.72      101449.35     -2075.8967     -185.15723      1351.0836      7048.1823      3790.539       10838.721      170400.32      44.002783      44.002783      88.005565          16004 
     69000   3397.9561      98563.761      374.18588      97904.506      98630.403      99156.372     -736.83745     -1210.6642      2538.6157      7028.8425      3808.7915      10837.634      170602.63      44.02019       44.02019       88.040379          16004 
     70000   3386.2942      96182.364      380.53566      97195.53       96680.92       94670.642      450.08588     -1308.5416      15.951179      7004.7192      3900.0579      10904.777      170869.78      44.043155      44.043155      88.086309          16004 
     71000   3368.512       97859.781      386.88639      97838.864      97796.359      97944.121      310.96446      1311.8557      720.72587      6967.9359      3831.1552      10799.091      170660.83      44.025195      44.025195      88.050389          16004 
     72000   3392.199       98994.179      393.24827      98274.075      97914.618      100793.84      1348.8739     -2190.8226      4180.8532      7016.9335      3852.0378      10868.971      170589.75      44.019082      44.019082      88.038164          16004 
     73000   3378.2264      101289.64      399.62279      100869.91      102263.93      100735.08     -188.01201     -1518.8896      22.746328      6988.0306      3801.4351      10789.466      170388.95      44.001804      44.001804      88.003608          16004 
     74000   3404.1762      99120.838      405.97845      100121.98      97778.73       99461.808     -639.6981       1018.4412     -1206.6365      7041.709       3889.426       10931.135      170564.14      44.016879      44.016879      88.033757          16004 
     75000   3414.2803      102216.56      412.33231      100992.39      101968.35      103688.95      1868.1874     -1128.2214      1014.5714      7062.6098      3878.3427      10940.953      170431.28      44.005447      44.005447      88.010894          16004 
     76000   3398.5723      102947.03      418.68714      102807.39      103402.79      102630.91     -633.49461      1646.9462      1219.0455      7030.1171      3831.9677      10862.085      170288         43.993112      43.993112      87.986225          16004 
     77000   3407.6265      101501.32      425.04151      102691.52      101031.13      100781.31      455.11324     -452.30846     -373.19709      7048.8461      3913.3177      10962.164      170545.47      44.015273      44.015273      88.030546          16004 
     78000   3393.722       103017.87      431.40361      103052.05      102672.35      103329.2      -515.38733     -1844.4784      3008.2523      7020.0839      3828.6737      10848.758      170318.9       43.995772      43.995772      87.991545          16004 
     79000   3417.7433      98716.733      437.77788      97439.968      98844.167      99866.062     -1763.0275      1155.0248     -174.57653      7069.7732      3892.6759      10962.449      170690.65      44.027759      44.027759      88.055518          16004 
     80000   3429.2253      97978.914      444.1422       97675.387      98258.304      98003.051     -1453.6007     -584.02889      1655.6414      7093.5243      3779.7421      10873.266      170649.35      44.024208      44.024208      88.048415          16004 
     81000   3377.5278      97511.311      450.50103      97575.483      97958.676      96999.774      1634.8457     -788.86012     -891.96219      6986.5855      3832.3322      10818.918      170609.78      44.020805      44.020805      88.041609          16004 
     82000   3424.6939      99760.825      456.85626      99226.567      99436.652      100619.26     -1634.8048     -2292.1286     -113.627        7084.1509      3767.8448      10851.996      170551.69      44.015808      44.015808      88.031615          16004 
     83000   3414.454       98310.798      463.21325      97354.192      96998.858      100579.34     -474.95904      855.8251      -1742.2144      7062.9692      3877.5614      10940.531      170660.79      44.025191      44.025191      88.050383          16004 
     84000   3398.868       99332.937      469.57147      98791.429      99057.324      100150.06     -1661.9308      2194.8011     -570.63726      7030.7287      3821.6118      10852.341      170654.98      44.024692      44.024692      88.049383          16004 
     85000   3376.9746      95739.699      475.93862      94317.82       97861.273      95040.003      28.859139      1071.5586      716.06174      6985.4411      3825.2406      10810.682      170842.02      44.040769      44.040769      88.081539          16004 
     86000   3368.6133      96033.33       482.31267      96647.555      96594.083      94858.351     -285.1002      -1829.981       217.27402      6968.1455      3797.5344      10765.68       170785.53      44.035915      44.035915      88.07183           16004 
     87000   3394.2684      94720.901      488.67919      93715.65       95068.191      95378.863      1872.6497      1292.1297     -1162.5033      7021.2142      3714.6133      10735.827      170831.59      44.039874      44.039874      88.079748          16004 
     88000   3389.5256      97285.989      495.03375      95886.191      97908.823      98062.953      2085.9142      1682.4255      1657.7862      7011.4036      3886.8817      10898.285      170762.79      44.033961      44.033961      88.067921          16004 
     89000   3397.2351      100970.58      501.39586      101144.08      100720.72      101046.93     -973.87262     -1171.8701      756.73188      7027.3511      3830.5931      10857.944      170436.89      44.00593       44.00593       88.01186           16004 
     90000   3434.7162      102128.63      507.75781      103124.04      101901.43      101360.42     -1184.0996     -665.88475     -345.3143       7104.8826      3767.5622      10872.445      170400.76      44.00282       44.00282       88.00564           16004 
     91000   3419.813       101476.9       514.11909      100701.03      101335.54      102394.12     -1351.4676     -609.66928     -1037.6886      7074.0545      3821.1693      10895.224      170455.34      44.007517      44.007517      88.015035          16004 
     92000   3413.1166      104401.71      520.49692      103543.32      104768.67      104893.15     -373.7207      -877.79734      510.42104      7060.2026      3814.9635      10875.166      170179.55      43.983771      43.983771      87.967541          16004 
     93000   3435.9224      103179.25      526.8583       101354.08      103974.33      104209.34     -1174.7652      963.58627     -248.02736      7107.3775      3798.5226      10905.9        170339.24      43.997524      43.997524      87.995047          16004 
     94000   3403.7593      102220.52      533.21174      102709.27      101591         102361.29      753.89574     -543.54613      506.13781      7040.8467      3867.2902      10908.137      170395.42      44.00236       44.00236       88.004721          16004 
     95000   3426.0768      101666.3       539.5681       102660         100384.18      101954.72      1185.2041     -2440.8303      1115.2468      7087.0114      3825.1081      10912.12       170475.7       44.009269      44.009269      88.018539          16004 
     96000   3390.5188      100984.08      545.92066      101525.9       100325.35      101100.99      654.72935      1103.9985     -328.16584      7013.458       3836.3453      10849.803      170430.02      44.005338      44.005338      88.010676          16004 
     97000   3393.4644      100684.28      552.2779       98595.312      102230.2       101227.31     -1857.1806     -1788.0601     -1625.2854      7019.5511      3779.071       10798.622      170449.47      44.007012      44.007012      88.014025          16004 
     98000   3380.6859      99464.731      558.64346      99172.848      99101.668      100119.68      902.71576      9.0602719      978.67449      6993.1182      3888.0496      10881.168      170600.69      44.020023      44.020023      88.040045          16004 
     99000   3403.3305      100467.79      565.00651      100392.72      100387.19      100623.47      599.64925      1357.2186     -1086.5332      7039.9596      3758.4181      10798.378      170413.07      44.003879      44.003879      88.007759          16004 
    100000   3362.8577      101145.42      571.36551      100288.62      102210.42      100937.2      -2206.9925      1290.4818      1921.5116      6956.2397      3847.2799      10803.52       170358.91      43.999217      43.999217      87.998434          16004 
    101000   3413.8505      100942.28      577.71558      101670.29      100683.59      100472.97      428.7919      -1457.3143     -1503.2605      7061.7208      3801.0618      10862.783      170435.54      44.005814      44.005814      88.011628          16004 
    102000   3428.5139      104414.17      584.06727      102130.48      105749.95      105362.1      -814.87339     -554.169       -183.84222      7092.0528      3830.2059      10922.259      170201.27      43.985642      43.985642      87.971283          16004 
    103000   3401.5012      104462.96      590.41066      104563.1       104552.03      104273.73     -285.82423     -721.05621      1503.3237      7036.1756      3792.8622      10829.038      170061.73      43.973618      43.973618      87.947236          16004 
    104000   3418.5022      101842.39      596.75446      102927.34      100708.58      101891.24      1024.7485      1895.2899     -789.68915      7071.343       3871.7598      10943.103      170423         44.004735      44.004735      88.009469          16004 
    105000   3385.1313      101266.16      603.11469      101347.47      101457.38      100993.64      410.31384     -831.0189      -1651.6902      7002.3136      3775.5033      10777.817      170346.66      43.998163      43.998163      87.996326          16004 
    106000   3449.8476      97571.802      609.46544      97190.67       97620.322      97904.414      1005.0002      413.74152      214.81463      7136.1826      3852.8995      10989.082      170717.96      44.030107      44.030107      88.060214          16004 
    107000   3394.7014      100897.12      615.81022      99566.051      101695.99      101429.3       245.05664      442.02578      314.52981      7022.11        3804.0849      10826.195      170444.96      44.006624      44.006624      88.013248          16004 
    108000   3432.8251      99356.439      622.15079      98991.176      100286.41      98791.735      183.24542     -634.13191     -1034.3582      7100.9707      3832.346       10933.317      170637.92      44.023225      44.023225      88.04645           16004 
    109000   3439.8478      101045.58      628.48807      100510.93      101391.24      101234.58     -1442.9973      2021.7285     -1422.636       7115.4976      3771.8925      10887.39       170458.29      44.007771      44.007771      88.015542          16004 
    110000   3402.9155      104178.5       634.8222       104617.57      103802.68      104115.25     -1401.5289      2802.4248     -1150.4183      7039.1012      3799.8726      10838.974      170209.21      43.986325      43.986325      87.972651          16004 
    111000   3383.8948      105825.38      641.15464      104677.04      105439.67      107359.43     -746.62414     -584.29745     -1328.8792      6999.7559      3794.606       10794.362      169995.77      43.967932      43.967932      87.935865          16004 
    112000   3387.8174      102437.01      647.48545      101408.7       102903.37      102998.96     -691.16099      1076.0154     -1253.9475      7007.8699      3906.0968      10913.967      170312.65      43.995234      43.995234      87.990468          16004 
    113000   3406.1762      104274.78      653.81946      105834.04      104114.37      102875.92     -621.5124      -352.11549     -228.56391      7045.8461      3775.616       10821.462      170167.02      43.982691      43.982691      87.965382          16004 
    114000   3416.6979      99196.156      660.15112      99565.971      98895.548      99126.949     -501.78121     -879.69111      24.309279      7067.6107      3801.6532      10869.264      170564.22      44.016885      44.016885      88.033771          16004 
    115000   3401.0798      98854.496      666.4809       98502.957      98078.444      99982.087     -1315.1378     -1879.4251      446.91048      7035.304       3807.3484      10842.652      170625.16      44.022127      44.022127      88.044254          16004 
    116000   3390.3549      99285.378      672.80886      99832.374      99807.796      98215.963     -263.56859      252.16305     -515.78146      7013.1189      3914.8629      10927.982      170603.71      44.020283      44.020283      88.040565          16004 
    117000   3392.4935      101841.69      679.13897      101591.27      101759.23      102174.56     -1468.2091     -187.96926     -206.81068      7017.5429      3795.8419      10813.385      170377.34      44.000804      44.000804      88.001608          16004 
    118000   3383.2069      101094.53      685.46832      100760.01      100944.38      101579.18      5.162819      -7.5406387     -2203.2024      6998.333       3839.7613      10838.094      170458.52      44.007791      44.007791      88.015582          16004 
    119000   3414.3821      99205.287      691.79717      99415.316      99287.431      98913.114     -2640.6764      806.87155     -695.37517      7062.8205      3806.8367      10869.657      170614.58      44.021217      44.021217      88.042434          16004 
    120000   3397.3546      101954.95      698.12524      103145.79      102223.41      100495.66     -2111.8632      797.59437      427.99188      7027.5981      3854.6037      10882.202      170418.27      44.004327      44.004327      88.008654          16004 
    121000   3416.69        102117.69      704.45328      104479.82      100876.92      100996.33     -937.78031      978.95777      469.45568      7067.5945      3770.6633      10838.258      170395.32      44.002352      44.002352      88.004704          16004 
    122000   3385.4027      101445.15      710.78101      101128.16      102686.21      100521.07      3320.5598      1715.2802     -1317.5888      7002.8751      3848.5814      10851.456      170464.18      44.008279      44.008279      88.016557          16004 
    123000   3407.1538      98427.487      717.10831      98869.53       97168.782      99244.148      31.957657     -1424.0995      1870.2442      7047.8684      3791.6235      10839.492      170602.69      44.020195      44.020195      88.040389          16004 
    124000   3366.8164      95774.278      723.43663      96342.03       95496.22       95484.583      424.62693      414.53141      1576.0981      6964.4283      3833.6035      10798.032      170849.05      44.041374      44.041374      88.082748          16004 
    125000   3428.1911      93739.675      729.76585      94975.347      94162.967      92080.709      3304.0595      650.66632     -367.40016      7091.3851      3783.9865      10875.372      171034.13      44.057271      44.057271      88.114542          16004 
    126000   3383.3161      97979.654      736.09176      98690.405      98134.173      97114.383     -190.35587     -1205.987       1507.1947      6998.5588      3848.2472      10846.806      170765.59      44.034201      44.034201      88.068402          16004 
    127000   3401.6084      99215.912      742.4203       98527.92       99865.704      99254.111     -410.48031     -869.16206     -1295.521       7036.3975      3732.4266      10768.824      170508.99      44.012134      44.012134      88.024269          16004 
    128000   3394.0309      98897.766      748.74902      98802.844      99210.569      98679.883      620.15101      2499.7395      1421.4146      7020.7229      3868.1592      10888.882      170593.8       44.01943       44.01943       88.03886           16004 
    129000   3414.538       100938.26      755.0751       100887.73      100578.6       101348.47      1287.3415      381.35502      54.291129      7063.143       3752.6158      10815.759      170467.08      44.008528      44.008528      88.017057          16004 
    130000   3403.6579      99036.617      761.40376      100286.62      97991.039      98832.19      -707.65621      2039.5163      1625.6752      7040.6369      3810.0136      10850.651      170503.13      44.01163       44.01163       88.02326           16004 
    131000   3422.8859      99742.247      767.73165      99023.029      100324.37      99879.342     -112.98048     -336.36563     -151.13693      7080.411       3832.8805      10913.292      170541.62      44.014942      44.014942      88.029884          16004 
    132000   3365.0763      102179.02      774.05213      102829.03      101688.18      102019.84      1022.6053      271.80566     -1359.2993      6960.8289      3771.5843      10732.413      170230.98      43.988201      43.988201      87.976401          16004 
    133000   3404.6733      104757.56      780.38251      103760.02      105672.01      104840.66     -100.30686     -370.83851     -480.37062      7042.7373      3864.5274      10907.265      170092.2       43.976244      43.976244      87.952488          16004 
    134000   3382.2417      105831.48      786.71162      104934.84      106038.8       106520.81      1460.5181     -171.75113     -313.5776       6996.3364      3885.78        10882.116      170126.4       43.979191      43.979191      87.958383          16004 
    135000   3385.6926      101872.18      793.04049      102447.77      101193.81      101974.97      384.1964       1064.7814      9.6360948      7003.4748      3898.6891      10902.164      170415.95      44.004128      44.004128      88.008255          16004 
    136000   3420.0451      101178.93      799.36751      101366.67      100588.57      101581.56      1613.0483      1313.3067      1210.6551      7074.5346      3822.8014      10897.336      170451.3       44.00717       44.00717       88.01434           16004 
    137000   3427.7292      101071.54      805.69612      100018.19      101810.72      101385.71      568.42977     -1742.0867     -264.22045      7090.4296      3775.6381      10866.068      170458.49      44.007788      44.007788      88.015577          16004 
    138000   3423.7262      99664.946      812.02851      97912.996      100618.33      100463.51      1180.3788     -160.41284     -689.72185      7082.1492      3825.8182      10907.967      170585.72      44.018735      44.018735      88.03747           16004 
    139000   3387.7865      99680.468      818.36071      100016.3       99887.084      99138.025      1054.31       -79.897634     -851.26591      7007.8061      3816.8891      10824.695      170529.4       44.01389       44.01389       88.027781          16004 
    140000   3387.5601      100033.02      824.68986      100141         99787.388      100170.66      2087.7473      807.92439      360.01169      7007.3377      3791.0309      10798.369      170498.45      44.011227      44.011227      88.022454          16004 
    141000   3383.7973      99140.221      831.01902      99584.178      98038.682      99797.802     -3130.3447     -1504.3688      1546.8559      6999.5542      3813.7614      10813.316      170582.31      44.018442      44.018442      88.036883          16004 
    142000   3405.7875      99700.64       837.34902      99647.201      99249.617      100205.1      -559.72266     -3392.5215     -289.00436      7045.042       3793.9572      10838.999      170506.4       44.011912      44.011912      88.023824          16004 
    143000   3394.8163      96228.178      843.67769      96271.972      96834.201      95578.361      345.87183      705.8771       2417.09        7022.3477      3687.0309      10709.379      170641.64      44.023545      44.023545      88.047089          16004 
    144000   3389.215       95878.523      850.00462      96736.989      96842.574      94056.007     -343.34998     -820.74466     -980.81443      7010.761       3756.683       10767.444      170828.72      44.039627      44.039627      88.079253          16004 
    145000   3370.0842      97844.118      856.33229      97640.668      97257.685      98634          215.85555      907.58656     -1295.9609      6971.1881      3794.4918      10765.68       170629.08      44.022464      44.022464      88.044928          16004 
    146000   3450.6344      99858.147      862.65998      98977.431      101260.05      99336.956      2100.9092      1515.7018     -3262.534       7137.8102      3850.5884      10988.399      170628.48      44.022413      44.022413      88.044826          16004 
    147000   3399.6033      98831          868.9883       98210.34       99774.337      98508.322     -1021.5356      1132.6129      1198.2082      7032.2498      3787.3298      10819.58       170609.75      44.020802      44.020802      88.041604          16004 
    148000   3365.8638      96412.19       875.31644      95509.518      96718.928      97008.123      204.99453     -2183.7588     -399.51444      6962.4579      3797.6251      10760.083      170753.16      44.033132      44.033132      88.066265          16004 
    149000   3412.8321      93650.125      881.64511      93232.744      95450.162      92267.468     -647.37021     -116.9649       627.64624      7059.6141      3778.2843      10837.898      171044.82      44.058189      44.058189      88.116379          16004 
    150000   3357.8868      96546.074      887.97147      97160.434      96148.827      96328.961      1055.4842      582.58374     -38.479311      6945.957       3883.1809      10829.138      170862.51      44.04253       44.04253       88.085061          16004 
    151000   3413.1849      98268.876      894.29745      98711.807      98770.828      97323.992     -833.55508     -970.25659     -1670.0262      7060.344       3670.5116      10730.856      170540.24      44.014823      44.014823      88.029646          16004 
    152000   3407.3901      98868.693      900.6284       101152.9       98416.851      97036.326      2117.9295      716.48984      1568.7851      7048.357       3879.2547      10927.612      170705.79      44.02906       44.02906       88.058121          16004 
    153000   3349.5209      98452.459      906.95641      97978.262      98314.236      99064.879      196.29463     -860.26021      443.50346      6928.6518      3779.741       10708.393      170593.28      44.019385      44.019385      88.03877           16004 
    154000   3392.2878      95167.497      913.28626      94117.547      96254.028      95130.914      632.49132     -509.82093      928.89241      7017.1173      3841.3086      10858.426      170975.99      44.052279      44.052279      88.104557          16004 
    155000   3372.0194      95102.266      919.61838      95873.284      94441.843      94991.67      -907.01485     -873.2834      -1481.1653      6975.191       3835.1864      10810.377      170799.58      44.037123      44.037123      88.074245          16004 
    156000   3374.5881      96802.058      925.94876      97012.465      97253.472      96140.237     -1339.0907     -122.7112      -766.67445      6980.5045      3856.9218      10837.426      170840.74      44.04066       44.04066       88.08132           16004 
    157000   3411.8173      97617.823      932.27916      97084.779      97965.346      97803.343      1222.4159      2207.509       508.73595      7057.515       3797.9242      10855.439      170667.58      44.025775      44.025775      88.051551          16004 
    158000   3352.5289      101076.65      938.60992      102426.98      99343.244      101459.73      820.02106      558.82332      445.3889       6934.8739      3770.5651      10705.439      170366.37      43.999859      43.999859      87.999719          16004 
    159000   3375.3747      101510.4       944.94366      101569.82      100995.35      101966.03     -32.909722      786.41944      592.45255      6982.1317      3846.9315      10829.063      170348.3       43.998304      43.998304      87.996608          16004 
    160000   3396.3114      99895.183      951.27498      100366.36      98977.173      100342.01     -337.16037      638.82277      1210.5439      7025.4403      3852.4151      10877.855      170583         44.018501      44.018501      88.037002          16004 
    161000   3374.0546      98664.209      957.60253      97390.547      98362.269      100239.81     -516.49701      280.63321      747.08165      6979.401       3871.5113      10850.912      170644.62      44.023801      44.023801      88.047602          16004 
    162000   3379.6367      97899.834      963.93261      97769.784      97797.528      98132.191      403.1605       3119.3374     -1222.4191      6990.9479      3813.0031      10803.951      170641.04      44.023493      44.023493      88.046986          16004 
    163000   3376.8351      96298.61       970.26239      96488.063      96798.993      95608.774      238.4162      -799.92538      363.01749      6985.1525      3791.8244      10776.977      170658.87      44.025026      44.025026      88.050052          16004 
    164000   3347.9036      94226.01       976.59224      93221.611      94828.891      94627.529     -833.0546      -1500.396      -2539.4556      6925.3064      3890.9488      10816.255      170912.3       44.046808      44.046808      88.093616          16004 
    165000   3388.1028      98359.198      982.92104      98132.809      97442.5        99502.286     -1601.411      -1876.2171      821.24932      7008.4604      3749.533       10757.993      170580.83      44.018315      44.018315      88.036629          16004 
    166000   3390.6207      98560.192      989.24538      98853.089      98236.618      98590.868      558.46286      977.75613      898.09744      7013.6688      3852.2264      10865.895      170688.14      44.027543      44.027543      88.055086          16004 
    167000   3405.2709      97475.756      995.57443      97103.599      96709.459      98614.21       95.424841     -1290.9544      574.73499      7043.9735      3834.9309      10878.904      170711.76      44.029574      44.029574      88.059147          16004 
    168000   3372.3397      96639.578      1001.9078      96541.708      96727.872      96649.154     -1344.7503     -149.77093      298.3579       6975.8537      3795.8532      10771.707      170716.03      44.029941      44.029941      88.059881          16004 
    169000   3401.1693      95651.607      1008.2383      96086.127      94685.158      96183.538      1744.811       585.91953     -1169.6766      7035.4892      3756.1259      10791.615      170700.87      44.028638      44.028638      88.057275          16004 
    170000   3393.5527      97317.85       1014.5691      97201.091      97470.471      97281.989     -887.46377     -306.07021     -1290.1694      7019.7337      3842.4514      10862.185      170814.4       44.038397      44.038397      88.076793          16004 
    171000   3354.2403      97282.399      1020.9021      97330.892      98605.847      95910.459     -236.69598      2382.0798     -1349.3051      6938.4142      3820.8631      10759.277      170685.45      44.027312      44.027312      88.054624          16004 
    172000   3371.631       94217.316      1027.2341      94186.181      93867.094      94598.672      2851.4967     -47.519142      412.8042       6974.3875      3878.9694      10853.357      170944.25      44.049553      44.049553      88.099105          16004 
    173000   3358.7494      100008.97      1033.5665      100118.2       99511.181      100397.54      2099.6188     -427.95376      1113.091       6947.7414      3807.0516      10754.793      170473.54      44.009083      44.009083      88.018167          16004 
    174000   3389.8094      97387.65       1039.8966      97643.396      97764.584      96754.97       1164.4845     -1258.6651     -555.20679      7011.9906      3885.4895      10897.48       170770.15      44.034593      44.034593      88.069186          16004 
    175000   3384.4973      101122.66      1046.2286      101583.32      100220.07      101564.58      123.512       -337.95899      234.02202      7001.0022      3811.17        10812.172      170463.55      44.008224      44.008224      88.016449          16004 
    176000   3381.3586      97926.275      1052.5599      98281.135      98106.265      97391.423      2532.7208     -1327.9063     -1371.8643      6994.5098      3799.3418      10793.852      170581.09      44.018337      44.018337      88.036674          16004 
    177000   3425.9943      98605.752      1058.8895      99494.228      97583.311      98739.718     -292.77692     -1450.6826      1450.6428      7086.8409      3777.5937      10864.435      170644.74      44.023811      44.023811      88.047622          16004 
    178000   3415.8299      100426.85      1065.221       100966.08      99639.089      100675.39      1140.1121     -1277.5717      1015.9268      7065.8152      3733.0594      10798.875      170471.88      44.008941      44.008941      88.017881          16004 
    179000   3414.63        96931.242      1071.5525      97653.919      97155.928      95983.88       543.34949      1736.0425      517.49511      7063.3333      3803.6998      10867.033      170790.32      44.036327      44.036327      88.072654          16004 
    180000   3394.8705      97847.834      1077.882       97881.521      98225.208      97436.773     -976.8353      -2007.2017     -136.24704      7022.4598      3798.525       10820.985      170721.47      44.030409      44.030409      88.060818          16004 
    181000   3399.4309      100484.18      1084.2173      100369.5       100052.57      101030.46      2006.3014      1330.5703      56.342443      7031.8932      3755.3497      10787.243      170511.38      44.01234       44.01234       88.02468           16004 
    182000   3390.6963      100535.31      1090.5479      99507.091      101799.04      100299.79     -398.64114     -2859.3196     -232.75543      7013.8251      3851.6526      10865.478      170517.16      44.012837      44.012837      88.025674          16004 
    183000   3391.2741      98570.99       1096.8773      98262.125      98997.517      98453.328     -3991.3532      1797.1776      162.84929      7015.0204      3848.7575      10863.778      170595.74      44.019597      44.019597      88.039194          16004 
    184000   3392.9119      100127.11      1103.2064      101160.78      98830.791      100389.75     -1088.3953     -1560.3222     -370.26141      7018.4083      3846.6095      10865.018      170486.65      44.010212      44.010212      88.020424          16004 
    185000   3397.7593      100493.47      1109.5348      100110.63      100163.64      101206.13     -2348.315      -165.43553      431.55404      7028.4354      3857.9608      10886.396      170480.91      44.009718      44.009718      88.019435          16004 
    186000   3359.2259      99739.406      1115.8663      98280.267      100663.03      100274.92     -976.04106     -1010.1838      267.00327      6948.7271      3846.7074      10795.435      170522.65      44.01331       44.01331       88.02662           16004 
    187000   3342.4561      95867.354      1122.1997      98088.021      95985.273      93528.77      -1035.2995      914.61036     -728.59218      6914.0379      3813.7511      10727.789      170838.66      44.040481      44.040481      88.080962          16004 
    188000   3390.1712      93886.6        1128.5348      93642.396      93839.815      94177.589      249.79788      2289.9296     -415.89959      7012.7391      3755.2437      10767.983      170912.6       44.046834      44.046834      88.093667          16004 
    189000   3405.8816      96048.681      1134.8714      95951.319      97091.878      95102.845     -1879.1085      2142.5663     -2600.9033      7045.2368      3779.2186      10824.455      170838.92      44.040504      44.040504      88.081007          16004 
    190000   3393.339       98514.568      1141.212       98495.408      99042.726      98005.569      622.80899     -1242.4288      1362.4011      7019.2917      3775.4947      10794.786      170646.46      44.023959      44.023959      88.047918          16004 
    191000   3351.9999      97251.502      1147.5553      97669.284      95773.498      98311.724     -1730.5338     -1382.8134      1120.7785      6933.7797      3806.4493      10740.229      170638.96      44.023314      44.023314      88.046629          16004 
    192000   3428.443       97637.462      1153.8929      98374.682      96082.046      98455.657     -2173.5093      1712.8435     -99.195216      7091.9062      3800.9013      10892.807      170708.52      44.029296      44.029296      88.058591          16004 
    193000   3369.0437      100246.71      1160.2293      99814.972      100473.59      100451.57      288.1344      -473.20137     -977.92736      6969.0357      3865.6923      10834.728      170486.85      44.010229      44.010229      88.020458          16004 
    194000   3396.6897      103960.66      1166.5634      103989.91      103303         104589.08      1043.5002      199.1701       9.9031105      7026.2229      3744.6453      10770.868      170048.68      43.972493      43.972493      87.944986          16004 
    195000   3429.48        103109.69      1172.8999      103372.32      103292.74      102664        -943.72516     -391.31225     -2203.9703      7094.0512      3821.616       10915.667      170252.87      43.990086      43.990086      87.980173          16004 
    196000   3414.363       102323.14      1179.2368      101853.63      102466.73      102649.06      346.69222     -326.04522      399.92742      7062.7809      3860.5935      10923.374      170372.15      44.000357      44.000357      88.000714          16004 
    197000   3425.3063      102292.41      1185.583       100313.35      103320.38      103243.51     -212.81118     -226.85604      1343.8725      7085.4176      3860.9103      10946.328      170440.53      44.006243      44.006243      88.012485          16004 
    198000   3375.1745      100590.11      1191.9292      101150.68      100428.9       100190.74      2253.8118      1543.6217     -2579.6719      6981.7175      3779.3998      10761.117      170437.22      44.005958      44.005958      88.011916          16004 
    199000   3400.58        98762.273      1198.2756      97789.953      99974.054      98522.813     -376.01878     -469.65659     -1069.4488      7034.27        3804.4962      10838.766      170586.58      44.018809      44.018809      88.037618          16004 
    200000   3439.8128      98170.627      1204.6342      97718.421      98926.132      97867.329      2437.7484     -601.32216      447.90226      7115.425       3798.186       10913.611      170635.2       44.02299       44.02299       88.045981          16004 
    201000   3403.2133      101285.21      1210.9829      100582.44      103162.65      100110.53     -2654.2371      280.89211     -2259.282       7039.7172      3729.9196      10769.637      170449.53      44.007018      44.007018      88.014036          16004 
    202000   3441.627       98092.572      1217.3412      97531.869      97731.723      99014.125      105.60857      394.94072      407.01016      7119.1779      3785.0273      10904.205      170669.44      44.025935      44.025935      88.05187           16004 
    203000   3397.2012      99026.578      1223.6979      98871.82       99976.147      98231.766     -325.14687     -2785.2081      36.889067      7027.2809      3799.1392      10826.42       170482.07      44.009818      44.009818      88.019636          16004 
    204000   3398.39        99971.09       1230.0464      100439.7       99780.069      99693.501     -102.05286     -2325.5999     -232.24623      7029.7399      3847.2797      10877.02       170497.67      44.01116       44.01116       88.022321          16004 
    205000   3381.3488      99631.704      1236.3996      100129.87      99380.915      99384.325      258.43146     -2166.5465      1538.219       6994.4894      3795.4049      10789.894      170507.52      44.012008      44.012008      88.024016          16004 
    206000   3384.3105      98529.284      1242.7554      99129.72       98708.412      97749.721     -2719.6899      1050.4496      903.66191      7000.6158      3764.6624      10765.278      170615.73      44.021317      44.021317      88.042633          16004 
    207000   3429.7417      98286.917      1249.1081      98257.545      98947.471      97655.735      1377.3814     -754.53784     -1521.6189      7094.5926      3820.1994      10914.792      170687.59      44.027496      44.027496      88.054992          16004 
    208000   3376.2918      98879.678      1255.4687      99380.423      98324.384      98934.226     -3017.4843      431.99956      1897.348       6984.0287      3836.5106      10820.539      170528.97      44.013853      44.013853      88.027707          16004 
    209000   3363.7568      98429.843      1261.8288      98186.218      98620.437      98482.875     -682.67011      1173.4432      381.60047      6958.0994      3832.6908      10790.79       170537.91      44.014623      44.014623      88.029246          16004 
    210000   3439.7393      98741.885      1268.1805      99534.68       97125.165      99565.81       58.121191     -1127.0513     -2581.525       7115.2731      3732.1515      10847.425      170565.98      44.017037      44.017037      88.034074          16004 
    211000   3396.2874      100686.65      1274.5338      101187.29      99391.327      101481.35      2371.6048      2605.2695     -1075.6027      7025.3907      3719.633       10745.024      170464.85      44.008336      44.008336      88.016671          16004 
    212000   3396.0904      98287.007      1280.8913      98606.712      97815.255      98439.055     -53.444569     -1918.9869      605.80706      7024.9831      3839.3791      10864.362      170789.06      44.036219      44.036219      88.072437          16004 
    213000   3373.9944      100540.49      1287.2505      100726.88      100951.55      99943.038     -1804.9978     -330.66169      651.53563      6979.2764      3802.5236      10781.8        170422.48      44.00469       44.00469       88.00938           16004 
    214000   3398.3734      100192.34      1293.6166      100428.99      99375.079      100772.96     -820.26094     -639.00614     -484.21228      7029.7056      3837.6219      10867.328      170565.89      44.01703       44.01703       88.034059          16004 
    215000   3391.4481      102769.19      1299.9892      102959.03      102705.22      102643.31      1858.0617     -232.1622       92.864549      7015.3804      3742.1481      10757.529      170211.02      43.986481      43.986481      87.972963          16004 
    216000   3379.705       99952.559      1306.3495      99897.238      99640.946      100319.49      145.94592      584.04879      1343.5464      6991.0891      3856.8752      10847.964      170524.53      44.013471      44.013471      88.026942          16004 
    217000   3385.3424      97021.551      1312.7066      97138.273      96836.345      97090.035     -1875.6119     -820.53862      864.71675      7002.7503      3881.4946      10884.245      170825.65      44.039363      44.039363      88.078725          16004 
    218000   3398.681       96463.772      1319.0663      96023.022      95644.189      97724.104      1342.0319      1338.177       631.28199      7030.342       3808.5923      10838.934      170822.66      44.039106      44.039106      88.078212          16004 
    219000   3372.5306      97484.368      1325.4264      97323.739      99455.491      95673.876     -655.94093     -1529.5659     -1580.4197      6976.2484      3804.2593      10780.508      170696.1       44.028227      44.028227      88.056454          16004 
    220000   3409.4245      97602.439      1331.7865      98034.07       95836.606      98936.64       1382.781       100.32685      1042.5247      7052.5655      3750.6399      10803.205      170565.18      44.016968      44.016968      88.033936          16004 
    221000   3396.6025      98086.176      1338.1503      97959.245      97091.125      99208.158      1324.2095      1732.7262      2264.9196      7026.0423      3752.185       10778.227      170562.43      44.016731      44.016731      88.033463          16004 
    222000   3402.266       99077.014      1344.5166      97364.067      99177.165      100689.81      2267.0029      1699.8936     -1306.6989      7037.7576      3874.0773      10911.835      170695.03      44.028136      44.028136      88.056271          16004 
    223000   3426.3418      98328.596      1350.8691      99484.784      97785.623      97715.38      -869.71298     -842.27041     -3165.029       7087.5597      3763.6214      10851.181      170603.6       44.020273      44.020273      88.040546          16004 
    224000   3390.275       99332.847      1357.2245      101918.68      98327.259      97752.605      1191.9739     -70.758018      1374.4151      7012.9536      3859.4264      10872.38       170591.28      44.019213      44.019213      88.038426          16004 
    225000   3418.5141      105001.4       1363.5841      105495.21      104040.51      105468.49     -1883.4239     -277.23706      1938.6468      7071.3676      3878.4191      10949.787      170277.22      43.992183      43.992183      87.984367          16004 
    226000   3428.9696      104533.21      1369.9417      105791.82      103779.13      104028.68      2222.2421     -1938.2542     -580.52799      7092.9954      3825.3078      10918.303      170198.04      43.985364      43.985364      87.970728          16004 
    227000   3423.4838      103118.42      1376.3088      103885.5       103488.4       101981.35     -725.60936     -380.57734     -520.09918      7081.6477      3907.2253      10988.873      170307.67      43.994805      43.994805      87.989611          16004 
    228000   3439.6147      100346.13      1382.68        99100.761      98026.399      103911.22     -194.2345      -1025.1392      73.15425       7115.0154      3792.6017      10907.617      170483.38      44.00993       44.00993       88.019861          16004 
    229000   3420.8456      103212.93      1389.0368      103769.02      101455.39      104414.38      732.47985     -634.82336      375.42939      7076.1904      3707.078       10783.268      170236.04      43.988637      43.988637      87.977275          16004 
    230000   3382.6383      100848.94      1395.392       101052.33      101319.41      100175.07     -86.653006      1699.0506     -977.84635      6997.1568      3912.2487      10909.406      170565.17      44.016968      44.016968      88.033935          16004 
    231000   3382.57        101900.35      1401.7539      102694.8       101525.92      101480.33     -124.44201     -758.47623      198.76156      6997.0155      3825.7372      10822.753      170308.56      43.994882      43.994882      87.989764          16004 
    232000   3445.2647      103916.94      1408.1092      104674.37      103811.56      103264.88      182.10796      348.14173     -1477.8955      7126.7027      3812.0305      10938.733      170187.24      43.984433      43.984433      87.968867          16004 
    233000   3429.6717      104234.66      1414.4739      105256.48      103604.83      103842.66     -1865.3183      264.97128     -1382.147       7094.4477      3873.6688      10968.117      170249.55      43.9898        43.9898        87.979601          16004 
    234000   3372.9484      102385.18      1420.8448      101419.12      103246.08      102490.33     -930.64371      1168.6448      1905.6976      6977.1128      3945.3969      10922.51       170328.74      43.99662       43.99662       87.993241          16004 
    235000   3411.8396      103734.21      1427.2038      102243.94      103859.46      105099.22      520.73517      374.68888     -1450.2752      7057.5612      3816.4608      10874.022      170186.46      43.984366      43.984366      87.968733          16004 
    236000   3417.8633      101847.23      1433.5526      101279.59      101544.24      102717.87     -3131.1267     -1013.0754      1224.5955      7070.0214      3805.3758      10875.397      170350.14      43.998463      43.998463      87.996925          16004 
    237000   3396.492       101912.88      1439.9098      101656.1       102339.65      101742.89      522.9857      -389.37494     -968.4604       7025.8139      3796.6573      10822.471      170272.66      43.991791      43.991791      87.983582          16004 
    238000   3412.6388      102567.78      1446.2664      102586.65      101932.05      103184.63     -529.4161      -275.8896       124.82598      7059.2143      3806.0664      10865.281      170289.31      43.993224      43.993224      87.986449          16004 
    239000   3418.1189      101606.56      1452.6254      101741.8       101245.16      101832.73      245.29468     -658.70867     -970.4652       7070.5502      3847.5719      10918.122      170398.08      44.002589      44.002589      88.005178          16004 
    240000   3365.5669      105060.8       1458.9909      104719.21      103809.75      106653.43     -1525.71       -1763.8375      1500.6246      6961.8438      3881.941       10843.785      170119.77      43.97862       43.97862       87.95724           16004 
    241000   3431.2984      100432.8       1465.3566      99985.194      100557.58      100755.64      1212.0717     -1472.9323     -358.92155      7097.8126      3821.5661      10919.379      170547.57      44.015454      44.015454      88.030908          16004 
    242000   3414.3429      103107.01      1471.7149      102888.14      102302.91      104129.97     -1063.9841      3060.7115     -600.20476      7062.7393      3793.0457      10855.785      170359.2       43.999243      43.999243      87.998485          16004 
    243000   3398.6808      98953.935      1478.0728      99504.941      97284.878      100071.98      611.92937     -1489.0749      561.42645      7030.3415      3923.5652      10953.907      170601.81      44.020119      44.020119      88.040238          16004 
    244000   3372.4822      101480.5       1484.4362      100847.56      102035.1       101558.85     -1605.5692     -381.92807      123.12473      6976.1483      3875.1821      10851.33       170455.28      44.007513      44.007513      88.015026          16004 
    245000   3425.7467      100840.32      1490.797       101597.49      99764.04       101159.42     -1989.9         403.89854      2709.7388      7086.3286      3810.5278      10896.856      170497.9       44.01118       44.01118       88.02236           16004 
    246000   3401.3071      102839.84      1497.1633      102902.71      103114.31      102502.49      1760.7023     -701.27511     -1142.1283      7035.7742      3793.9266      10829.701      170306.98      43.994746      43.994746      87.989493          16004 
    247000   3423.9231      100801.98      1503.5331      100689.65      99604.343      102111.95      1510.951       1255.1132      30.030623      7082.5564      3830.47        10913.026      170499.54      44.011321      44.011321      88.022643          16004 
    248000   3354.7304      104686.98      1509.8906      104643.45      105369.66      104047.83      847.97023      334.12307      1681.0258      6939.4278      3822.5125      10761.94       170039.13      43.97167       43.97167       87.94334           16004 
    249000   3396.9046      102076.84      1516.2482      100739.28      103683.3       101807.93     -1281.9824      2290.0811     -670.81839      7026.6673      3853.3768      10880.044      170319.44      43.995819      43.995819      87.991638          16004 
    250000   3383.8594      102751.22      1522.6113      101864.35      101943.31      104446.01     -1446.2412     -204.49365      811.5129       6999.6827      3743.8422      10743.525      170238.74      43.98887       43.98887       87.97774           16004 
    251000   3415.6921      99175.831      1528.967       98681.066      99078.554      99767.872     -29.094149     -1681.2935     -1930.1324      7065.5302      3845.4689      10910.999      170632.73      44.022778      44.022778      88.045556          16004 
    252000   3405.4754      101603.37      1535.3324      103505.77      100565.25      100739.09      996.61696      1395.1839      1198.7191      7044.3964      3815.5612      10859.958      170342.94      43.997842      43.997842      87.995684          16004 
    253000   3417.4831      102942.34      1541.7026      102660.51      103716.51      102449.99     -155.33461      2583.8194      271.54084      7069.2351      3922.8541      10992.089      170297.57      43.993936      43.993936      87.987872          16004 
    254000   3390.4789      104695.83      1548.0625      104141.94      103658.87      106286.68      2194.9881     -439.04313     -141.38457      7013.3754      3926.0987      10939.474      170109.65      43.977748      43.977748      87.955495          16004 
    255000   3416.1538      103355.54      1554.4189      102403.51      104284.84      103378.26      399.76849     -30.703153      294.92654      7066.4853      3803.7543      10870.24       170329.24      43.996663      43.996663      87.993326          16004 
    256000   3410.2332      100443.35      1560.7771      100306.75      100044.33      100978.97     -1736.6846      386.95311      724.63384      7054.2382      3829.4545      10883.693      170487.37      44.010274      44.010274      88.020548          16004 
    257000   3446.5547      99252.839      1567.1353      99475.806      100475.4       97807.312      1422.6559     -355.51021     -15.058579      7129.371       3865.7027      10995.074      170676.24      44.02652       44.02652       88.053039          16004 
    258000   3395.1859      99568.983      1573.4969      99871.71       98902.095      99933.143      96.27887      -2380.0252      824.59012      7023.1121      3825.1691      10848.281      170587.6       44.018897      44.018897      88.037793          16004 
    259000   3433.0692      96805.831      1579.8665      96523.835      97857.074      96036.584      1548.6871     -1650.8806     -83.883455      7101.4757      3829.212       10930.688      170849.41      44.041405      44.041405      88.08281           16004 
    260000   3377.2036      96684.087      1586.2307      96471.111      96975.315      96605.833      544.45877      1347.1095      525.60985      6985.9148      3797.442       10783.357      170740.38      44.032034      44.032034      88.064068          16004 
    261000   3370.0618      95568.295      1592.5869      96075.992      95562.46       95066.433     -3240.3037      852.72629     -1344.0054      6971.1416      3692.0982      10663.24       170760.84      44.033793      44.033793      88.067586          16004 
    262000   3382.8933      97045.582      1598.9462      96627.812      96949.372      97559.562     -1011.3273      753.64085     -602.76979      6997.6843      3789.8282      10787.512      170703.77      44.028887      44.028887      88.057774          16004 
    263000   3392.305       96849.692      1605.3047      95703.914      98237.737      96607.424     -152.56646      283.97443     -669.0662       7017.1528      3896.6159      10913.769      170813.43      44.038313      44.038313      88.076625          16004 
    264000   3420.7158      100899.5       1611.663       100547.19      101968.62      100182.67     -701.14619      1065.2542      330.65032      7075.922       3767.8402      10843.762      170431.26      44.005446      44.005446      88.010891          16004 
    265000   3374.9704      103125.45      1618.0289      103918.82      102209.45      103248.09     -1297.592       60.216217     -1124.168       6981.2953      3798.0234      10779.319      170245.95      43.98949       43.98949       87.978981          16004 
    266000   3397.4627      104495.91      1624.3968      105403.12      104768.02      103316.59      1858.8684     -1047.8143      501.86742      7027.8218      3841.7478      10869.57       170261.91      43.990865      43.990865      87.98173           16004 
    267000   3418.7787      103365.82      1630.7549      103611.7       103125.14      103360.61     -3376.4543      78.027972     -603.84081      7071.9151      3852.031       10923.946      170270.47      43.991602      43.991602      87.983205          16004 
    268000   3408.1056      103220.03      1637.1107      102895.47      103576.45      103188.16     -917.47009      1189.9329     -1019.6809      7049.8372      3785.9578      10835.795      170215.56      43.986872      43.986872      87.973745          16004 
    269000   3415.0494      99861.384      1643.4709      99320.445      98986.162      101277.54     -1366.7039     -1226.1212     -1417.4709      7064.2008      3808.0874      10872.288      170572.81      44.017625      44.017625      88.035249          16004 
    270000   3417.6288      98188.129      1649.8281      97393.725      99529.25       97641.413      14.332206      1583.1592     -45.810202      7069.5363      3773.2962      10842.833      170637.4       44.02318       44.02318       88.04636           16004 
    271000   3368.2725      99414.958      1656.1934      99240.634      99110.185      99894.056      150.56158     -1338.0606      465.3796       6967.4405      3827.7408      10795.181      170451.44      44.007182      44.007182      88.014364          16004 
    272000   3399.8655      98543.024      1662.5578      99556.756      98578.73       97493.584      202.38375      3027.6821      1064.4793      7032.7921      3842.6812      10875.473      170612.03      44.020998      44.020998      88.041996          16004 
    273000   3387.072       98378.653      1668.9188      99488.122      98996.463      96651.375      1289.573      -100.136        206.59403      7006.3281      3761.6678      10767.996      170481.87      44.009801      44.009801      88.019602          16004 
    274000   3415.5779      100271.82      1675.275       98898.525      102574.25      99342.694      1218.2289     -940.82867      861.07716      7065.294       3783.1912      10848.485      170519.01      44.012997      44.012997      88.025993          16004 
    275000   3431.5516      100527.46      1681.6353      99008.428      100145.39      102428.57     -140.57877      174.81854      794.67089      7098.3364      3751.7908      10850.127      170470.95      44.008861      44.008861      88.017722          16004 
    276000   3378.8626      100193.74      1687.9972      99167.945      100476.74      100936.54      909.58111     -1497.1805     -1128.4665      6989.3467      3822.6288      10811.975      170495.7       44.01099       44.01099       88.021981          16004 
    277000   3421.7904      98042.087      1694.357       98578.028      97706.259      97841.973     -655.19833      793.36706      1400.1267      7078.1448      3795.4553      10873.6        170712.7       44.029654      44.029654      88.059309          16004 
    278000   3367.184       98195.018      1700.7229      98801.051      97207.938      98576.064     -1299.619       1174.9407      1182.0386      6965.1889      3754.0215      10719.21       170612.5       44.021038      44.021038      88.042077          16004 
    279000   3391.0392      95271.07       1707.0834      95267.878      94358.393      96186.941      1354.0836      1621.6069     -273.66694      7014.5346      3789.8636      10804.398      170764.18      44.03408       44.03408       88.06816           16004 
    280000   3381.4585      100082.35      1713.4398      100146.95      100932.7       99167.404      1489.2782      609.22841      1133.2849      6994.7164      3775.1699      10769.886      170549.1       44.015585      44.015585      88.03117           16004 
    281000   3405.4924      98497.811      1719.7972      98768.881      98407.973      98316.579     -1388.5344     -676.81612     -1679.5426      7044.4317      3793.7118      10838.144      170560.68      44.016581      44.016581      88.033162          16004 
    282000   3379.3265      98154.091      1726.156       99992.762      97249.571      97219.942     -1311.3216     -272.04009     -556.53515      6990.3062      3767.4667      10757.773      170478.23      44.009487      44.009487      88.018975          16004 
    283000   3373.7257      98913.107      1732.5138      99748.506      98135.534      98855.28      -1167.2416      14.201327      2065.4029      6978.7206      3860.0555      10838.776      170586.21      44.018778      44.018778      88.037555          16004 
    284000   3402.8237      97215.893      1738.8787      96664.612      97217.831      97765.236      901.17557      572.27424      1455.0235      7038.9114      3801.28        10840.191      170727.47      44.030924      44.030924      88.061849          16004 
    285000   3383.5348      97466.879      1745.2427      97941.201      97338.363      97121.072     -3019.527      -1163.9754      625.74136      6999.0113      3779.5374      10778.549      170708.86      44.029325      44.029325      88.05865           16004 
    286000   3383.2117      97245.783      1751.5929      96821.307      97154.057      97761.985      2643.6864     -1222.4894     -790.57262      6998.3429      3874.3643      10872.707      170776.8       44.035164      44.035164      88.070329          16004 
[...]
   3930000   3124.1643      99258.486      6478.1749      93759.952      93875.037      110140.47     -353.41343      943.65807      717.5587       6462.4904      9870.1782      16332.669      187339.93      45.017872      45.017872      92.440109          16004 
   3931000   3122.5819      100770.51      6485.0697      95392.475      95051.333      111867.72      1949.7505     -1249.3633      1261.1963      6459.2172      9884.3067      16343.524      187163.69      45.00375       45.00375       92.411111          16004 
   3932000   3118.4209      101660.95      6491.9681      99943.363      96121.972      108917.53      71.315503     -2311.9559      4005.8795      6450.6099      9906.2325      16356.842      186939.47      44.985771      44.985771      92.374194          16004 
   3933000   3121.1163      100209.85      6498.8604      95728.093      97879.528      107021.93      2137.7572     -1114.1542      1503.6646      6456.1854      9871.2241      16327.409      187405.11      45.023092      45.023092      92.450828          16004 
   3934000   3111.7638      98569.92       6505.7529      93592.042      94330.33       107787.39      1129.6374     -1544.5012     -372.73439      6436.8393      9889.9425      16326.782      187408.64      45.023374      45.023374      92.451408          16004 
   3935000   3129.416       100323.45      6512.6515      96308.064      94875.134      109787.15      1397.4312      493.94943      2209.4463      6473.3537      9867.3701      16340.724      187175.74      45.004716      45.004716      92.413095          16004 
   3936000   3154.1652      98969.604      6519.5532      93707.672      92082.888      111118.25     -2067.1633      2987.7244     -1984.7639      6524.5488      9794.5835      16319.132      187518.29      45.032153      45.032153      92.469435          16004 
   3937000   3114.0517      97288.576      6526.4468      92055.072      94523.944      105286.71     -928.54772      85.901781     -180.09094      6441.5721      9871.5439      16313.116      187607.04      45.039257      45.039257      92.484021          16004 
   3938000   3110.0384      97474.851      6533.3365      92223.654      92972.82       107228.08     -575.59045      462.65807     -3064.2803      6433.2702      9887.9036      16321.174      187473.5       45.028568      45.028568      92.462073          16004 
   3939000   3091.5942      95991.204      6540.2221      88439.775      90930.469      108603.37      1439.7483     -1845.469       1438.9927      6395.1175      9881.6971      16276.815      188196.38      45.086369      45.086369      92.580762          16004 
   3940000   3128.7307      95807.887      6547.111       91134.289      92096.632      104192.74     -2628.2353      3284.2052     -1674.0314      6471.9362      9845.2429      16317.179      187544.58      45.034257      45.034257      92.473756          16004 
   3941000   3143.1024      99168.009      6554.0172      94949.728      96975.814      105578.48     -1925          -569.56066     -1953.3959      6501.6648      9835.39        16337.055      187236.64      45.009597      45.009597      92.423117          16004 
   3942000   3125.0179      100205.48      6560.9157      91988.144      97525.42       111102.87     -691.35487     -1302.8966      985.26723      6464.2561      9866.1926      16330.449      187338.64      45.017768      45.017768      92.439896          16004 
   3943000   3114.0517      100042.63      6567.8053      94211.666      94884.455      111031.76     -1455.7606      414.04551     -1693.0075      6441.5719      9879.706       16321.278      187484.38      45.029438      45.029438      92.46386           16004 
   3944000   3138.9848      96689.859      6574.6909      90471.525      94702.411      104895.64     -126.14447      858.28157     -3979.7999      6493.1472      9820.7552      16313.902      187597.83      45.03852       45.03852       92.482508          16004 
   3945000   3119.9284      98105.336      6581.5866      93104.871      94263.722      106947.41      29.735891      300.71951     -1356.9824      6453.7282      9865.1193      16318.848      187511.33      45.031596      45.031596      92.468291          16004 
   3946000   3156.0599      101784.84      6588.4751      98041.935      96054.099      111258.49      637.38834      3168.1317      778.96666      6528.4681      9822.1705      16350.639      186998.25      44.990486      44.990486      92.383876          16004 
   3947000   3142.3802      102112.72      6595.3772      99331.423      97619.619      109387.11      1143.3375      717.70787     -272.50015      6500.171       9839.4339      16339.605      187171.06      45.00434       45.00434       92.412324          16004 
   3948000   3113.5657      101343.45      6602.2702      97201.594      99408.895      107419.87     -616.63708      866.29711      792.8385       6440.5667      9886.5738      16327.141      187370.43      45.020314      45.020314      92.445124          16004 
   3949000   3110.8147      102689.49      6609.1583      99171.671      98059.651      110837.16     -430.42954      85.387877      2005.5081      6434.8761      9916.5232      16351.399      186971.39      44.988331      44.988331      92.379451          16004 
   3950000   3116.0468      100428.04      6616.0413      96324.035      97512.691      107447.38     -561.29302     -1456.6196     -1296.4516      6445.6989      9895.1534      16340.852      187136.92      45.001604      45.001604      92.406705          16004 
   3951000   3133.4345      105081.21      6622.9283      99787.51       102185.72      113270.4      -1562.9376     -411.42663     -1431.0322      6481.6663      9901.7603      16383.427      186451.58      44.946602      44.946602      92.293763          16004 
   3952000   3107.0288      98584.306      6629.8348      95434.016      95785.092      104533.81     -1494.6145      1172.1941     -1475.9012      6427.0446      9887.0897      16314.134      187560.3       45.035516      45.035516      92.476339          16004 
   3953000   3121.9973      97785.83       6636.733       93667.653      95308.779      104381.06      888.86085     -1368.5444      931.17386      6458.0079      9869.2906      16327.298      187347.42      45.018471      45.018471      92.441341          16004 
   3954000   3128.9186      98312.657      6643.6316      93744.237      93152.099      108041.63     -2346.8275     -1433.7506      2362.0694      6472.3249      9859.1539      16331.479      187279.56      45.013035      45.013035      92.430177          16004 
   3955000   3124.0256      99088.452      6650.5235      95171.013      94628.773      107465.57      1933.3995     -1496.3715      111.10216      6462.2035      9859.586       16321.789      187431.77      45.025227      45.025227      92.455212          16004 
   3956000   3113.1308      102735.97      6657.4155      99613.251      95960.355      112634.32     -1424.9181      521.37438     -2047.3585      6439.667       9922.5239      16362.191      186779.34      44.972923      44.972923      92.347812          16004 
   3957000   3103.2616      100550.72      6664.3141      96078.708      96840.842      108732.6       913.36275     -3763.6163     -138.72231      6419.2521      9907.5548      16326.807      187346.87      45.018427      45.018427      92.441249          16004 
   3958000   3118.9421      99393.53       6671.2137      94895.513      96479.799      106805.28     -1267.9385     -2918.9161      276.21468      6451.688       9853.0194      16304.707      187700         45.046695      45.046695      92.499295          16004 
   3959000   3118.7572      98793.777      6678.1117      92881.076      94243.897      109256.36     -2064.2897      1993.4046      112.32466      6451.3056      9852.85        16304.156      187704.55      45.047058      45.047058      92.500041          16004 
   3960000   3106.461       100861.35      6685.0016      96249.465      97241.446      109093.13     -1866.4607     -329.40379     -740.17415      6425.8702      9906.8572      16332.727      187247.45      45.010463      45.010463      92.424895          16004 
   3961000   3152.6536      103770.26      6691.8915      100535.62      99286.789      111488.38      1025.483      -111.26769     -86.084347      6521.4219      9841.6871      16363.109      186762.43      44.971565      44.971565      92.345023          16004 
   3962000   3118.5102      100386.76      6698.7763      96785.603      96501.209      107873.46     -891.61169     -781.17305      1497.0892      6450.7945      9853.3768      16304.171      187705.47      45.047132      45.047132      92.500192          16004 
   3963000   3118.5523      97658.565      6705.6695      91611.673      97263.953      104100.07     -602.59057      240.68152     -36.614679      6450.8817      9832.5192      16283.401      188022.83      45.072505      45.072505      92.552295          16004 
   3964000   3146.6487      100573.27      6712.5639      95730.68       95732.451      110256.68      282.23293     -665.56083     -124.237        6509.0005      9819.7008      16328.701      187296.59      45.014399      45.014399      92.432979          16004 
   3965000   3128.689       97948.496      6719.4535      92653.891      94061.827      107129.77     -2325.1986      1518.8711     -1205.6008      6471.8499      9851.29        16323.14       187383.33      45.021347      45.021347      92.447245          16004 
   3966000   3150.3195      99159.372      6726.3428      94825.724      97184.591      105467.8      -777.83612      2895.0183      2210.5593      6516.5936      9806.6323      16323.226      187377.96      45.020917      45.020917      92.446363          16004 
   3967000   3113.9991      98025.872      6733.2341      94107.535      92995.61       106974.47      500.70868      2007.664       1412.6915      6441.4632      9838.4287      16279.892      188064.98      45.075873      45.075873      92.559209          16004 
   3968000   3097.9037      97744.009      6740.1207      91636.409      94073.428      107522.19     -309.95388     -923.33639     -351.92219      6408.1691      9913.7592      16321.928      187388.37      45.021751      45.021751      92.448075          16004 
   3969000   3126.4672      103588.2       6747.0181      99107.414      99863.934      111793.26      1800.7201      728.96117      462.37415      6467.254       9867.2479      16334.502      187181.49      45.005176      45.005176      92.41404           16004 
   3970000   3123.3426      97599.212      6753.9116      92754.907      94881.117      105161.61     -1227.8743     -574.16723     -991.46247      6460.7906      9846.7164      16307.507      187605.2       45.039109      45.039109      92.483718          16004 
   3971000   3140.051       102393.95      6760.8037      99099.163      98364.856      109717.82     -1766.6186      1263.2386     -461.35362      6495.3529      9843.0932      16338.446      187109.87      44.999436      44.999436      92.402253          16004 
   3972000   3127.3335      100536.09      6767.6907      95779.078      97512.563      108316.63      2904.9471     -1155.3164     -559.3942       6469.0459      9835.6659      16304.712      187652.14      45.042866      45.042866      92.491432          16004 
   3973000   3130.9608      102836.47      6774.5744      98002.341      98527.841      111979.23      42.808509     -508.27652     -4618.3345      6476.5492      9854.7833      16331.332      187220.09      45.00827       45.00827       92.420393          16004 
   3974000   3119.4383      98117.412      6781.4606      96477.707      94964.655      102909.88     -422.3415       430.97546     -2811.5695      6452.7144      9873.5715      16326.286      187296.16      45.014365      45.014365      92.432909          16004 
   3975000   3135.9301      101571.63      6788.3565      97664.032      98216.609      108834.26     -1257.2849      1403.7183     -2066.7011      6486.8285      9839.2959      16326.124      187298.15      45.014524      45.014524      92.433235          16004 
   3976000   3131.4429      100668.42      6795.2452      96093.554      96685.152      109226.57     -212.57923      1564.0579      1314.6926      6477.5464      9841.612       16319.158      187389.7       45.021857      45.021857      92.448293          16004 
   3977000   3101.7664      102750.94      6802.1367      101085.81      95050.7        112116.31      1804.9283     -1931.2765     -439.58216      6416.1591      9919.3652      16335.524      187117.53      45.00005       45.00005       92.403514          16004 
   3978000   3123.885       99240.822      6809.0186      96340.992      96244.15       105137.32     -753.31133      2294.8824     -30.100363      6461.9127      9844.1842      16306.097      187577.68      45.036907      45.036907      92.479197          16004 
   3979000   3125.2681      100155.49      6815.9041      94791.235      97402.167      108273.06     -462.30864     -1810.3517     -2133.8133      6464.7737      9848.2157      16312.989      187459.16      45.027419      45.027419      92.459714          16004 
   3980000   3142.1822      104714.44      6822.7999      100531.76      101204.17      112407.39     -2601.005      -1339.0664     -1190.1604      6499.7612      9825.2738      16325.035      187254.41      45.01102       45.01102       92.42604           16004 
   3981000   3116.0389      101513.72      6829.6839      98192.968      99095.468      107252.73     -1512.993       2279.0654     -156.09546      6445.6825      9866.8248      16312.507      187447.47      45.026483      45.026483      92.457793          16004 
   3982000   3146.214       100524.81      6836.5817      97916.779      96266.964      107390.68     -160.19744     -389.16899     -2115.1874      6508.1014      9809.3094      16317.411      187363.59      45.019767      45.019767      92.444             16004 
   3983000   3135.1202      101715.33      6843.4718      100456.74      98753.397      105935.84     -238.04469     -1161.1715     -62.755932      6485.1532      9836.3119      16321.465      187290.49      45.013911      45.013911      92.431976          16004 
   3984000   3126.0083      99738.023      6850.3554      97288.394      93076.216      108849.46     -481.98376      1238.6774      1221.7022      6466.3047      9840.8892      16307.194      187507.55      45.031293      45.031293      92.467669          16004 
   3985000   3127.4185      96424.881      6857.2368      94090.309      90350.868      104833.47      323.24294     -1848.8678     -1908.5846      6469.2218      9814.5827      16283.804      187884.54      45.061452      45.061452      92.529598          16004 
   3986000   3123.8534      100431.8       6864.1319      95262.92       95779.005      110253.49      1315.5366      567.95447      1935.4277      6461.8473      9856.954       16318.801      187312.36      45.015663      45.015663      92.435573          16004 
   3987000   3127.0035      97177.607      6871.0277      94851.991      94546.606      102134.22      829.83486     -2491.023      -1246.486       6468.3634      9785.9639      16254.327      188346.05      45.098318      45.098318      92.605298          16004 
   3988000   3114.3774      96448.154      6877.9193      89710.924      95470.678      104162.86      7.0490658      23.237021      6.7197907      6442.2457      9861.4694      16303.715      187551.26      45.034792      45.034792      92.474854          16004 
   3989000   3108.9077      95346.662      6884.8029      92015.271      88677.282      105347.43     -584.20655      1666.1086      1864.5782      6430.9313      9844.8676      16275.799      187996.8       45.070425      45.070425      92.548023          16004 
   3990000   3117.7398      98358.036      6891.689       93582.638      96944.34       104547.13     -870.0487       1745.5264      12.178798      6449.2011      9855.9736      16305.175      187525.46      45.032727      45.032727      92.470614          16004 
   3991000   3142.3926      98085.144      6898.5772      90445.605      95124.211      108685.62      1420.1876      1983.4694      397.94177      6500.1964      9805.2974      16305.494      187510.21      45.031506      45.031506      92.468106          16004 
   3992000   3120.5236      101979.14      6905.473       97432.632      100295.11      108209.67      411.92116     -555.23326      1689.8813      6454.9595      9871.6388      16326.598      187159.77      45.003436      45.003436      92.410466          16004 
   3993000   3113.3082      99718.142      6912.3572      95907.303      97638.906      105608.22      669.02758     -2100.0152     -1750.4963      6440.034       9862.1991      16302.233      187549.7       45.034667      45.034667      92.474597          16004 
   3994000   3120.3312      101262.04      6919.2482      95607.915      97957.139      110221.05      1468.7398     -2253.7444      1329.2831      6454.5615      9858.6737      16313.235      187359.69      45.019454      45.019454      92.443359          16004 
   3995000   3103.4066      98212.265      6926.1294      91361.434      95233.032      108042.33      11.710617     -515.04092      505.88023      6419.552       9862.0551      16281.607      187861.38      45.059601      45.059601      92.525797          16004 
   3996000   3109.1995      99080.324      6933.0086      94297.189      96251.725      106692.06      366.70327      2951.3023     -495.43965      6431.5348      9869.3553      16300.89       187541.11      45.03398       45.03398       92.473186          16004 
   3997000   3102.7569      98773.893      6939.9069      94249.211      95793.838      106278.63      1577.2843      135.6164       1815.4544      6418.2081      9860.2166      16278.425      187892.1       45.062057      45.062057      92.53084           16004 
   3998000   3129.1086      101197.59      6946.7901      97870.68       98816.968      106905.11      365.77209      234.37463     -1139.4008      6472.7178      9844.3141      16317.032      187257.65      45.01128       45.01128       92.426573          16004 
   3999000   3117.1086      96559.061      6953.6732      93954.269      93472.527      102250.39     -1286.123      -2844.2227      2860.3628      6447.8953      9855.8414      16303.737      187466.26      45.027988      45.027988      92.460883          16004 
   4000000   3124.5399      100281.35      6960.5606      98272.143      97607.329      104964.59     -1926.8258     -755.79769      1590.0564      6463.2674      9842.6324      16305.9        187411.62      45.023613      45.023613      92.451898          16004 
Loop time of 6960.56 on 8 procs for 1000000 steps with 16004 atoms

Performance: 6.206 ns/day, 3.867 hours/ns, 143.667 timesteps/s
60.5% CPU use with 1 MPI tasks x 8 OpenMP threads

MPI task timing breakdown:
Section |  min time  |  avg time  |  max time  |%varavg| %total
---------------------------------------------------------------
Pair    | 6670.9     | 6670.9     | 6670.9     |   0.0 | 95.84
Neigh   | 10.844     | 10.844     | 10.844     |   0.0 |  0.16
Comm    | 41.01      | 41.01      | 41.01      |   0.0 |  0.59
Output  | 1.2904     | 1.2904     | 1.2904     |   0.0 |  0.02
Modify  | 209.97     | 209.97     | 209.97     |   0.0 |  3.02
Other   |            | 26.5       |            |       |  0.38

Nlocal:          16004 ave       16004 max       16004 min
Histogram: 1 0 0 0 0 0 0 0 0 0
Nghost:          14234 ave       14234 max       14234 min
Histogram: 1 0 0 0 0 0 0 0 0 0
Neighs:              0 ave           0 max           0 min
Histogram: 1 0 0 0 0 0 0 0 0 0
FullNghs:  1.31584e+06 ave 1.31584e+06 max 1.31584e+06 min
Histogram: 1 0 0 0 0 0 0 0 0 0

Total # of neighbors = 1315838
Ave neighs/atom = 82.21932
Neighbor list builds = 30433
Dangerous builds = 0
Total wall time: 7:11:13
