
atom_style atomic
units metal
boundary p p p
#atom_modify sort 0 0.0
newton on

read_data data.lammps
Reading data file ...
  orthogonal box = (0 0 0) to (43.790145 43.790145 87.58029)
  1 by 1 by 1 MPI processor grid
  reading atoms ...
  16004 atoms
  read_data CPU = 0.041 seconds
# replicate 10 10 20

### interactions

pair_style flare
pair_coeff * * lmp.flare
Reading potential file lmp.flare with DATE: Thu

# compute unc all flare/std/atom L_inv_lmp.flare sparse_desc_lmp.flare
# compute MaxUnc all reduce max c_unc

mass 1 12.011000
mass 2 28.085000

thermo_style custom step temp press cpu pxx pyy pzz pxy pxz pyz ke pe etotal vol lx ly lz atoms    #c_MaxUnc
thermo 1000
timestep 0.0005
restart 100000 restart_*.dat

#################### Equilibrate at P and T_es ##############################
velocity all create $T 41928459 rot yes dist gaussian
velocity all create 3400 41928459 rot yes dist gaussian
fix mom all momentum 1000 linear 1 1 1 angular

fix 1 all npt temp $T $T $(100.0*dt) iso $P $P $(1000.0*dt)
fix 1 all npt temp 3400 $T $(100.0*dt) iso $P $P $(1000.0*dt)
fix 1 all npt temp 3400 3400 $(100.0*dt) iso $P $P $(1000.0*dt)
fix 1 all npt temp 3400 3400 0.050000000000000002776 iso $P $P $(1000.0*dt)
fix 1 all npt temp 3400 3400 0.050000000000000002776 iso 300000 $P $(1000.0*dt)
fix 1 all npt temp 3400 3400 0.050000000000000002776 iso 300000 300000 $(1000.0*dt)
fix 1 all npt temp 3400 3400 0.050000000000000002776 iso 300000 300000 0.5
dump 1 all custom 1000 1equil.bin id type x y z vx vy vz
run   10000 # report performance
Neighbor list info ...
  update every 1 steps, delay 10 steps, check yes
  max neighbors/atom: 2000, page size: 100000
  master list distance cutoff = 6
  ghost atom cutoff = 6
  binsize = 6, bins = 8 8 15
  1 neighbor lists, perpetual/occasional/extra = 1 0 0
  (1) pair flare/kk, perpetual
      attributes: full, newton on, kokkos_device
      pair build: full/bin/kk/device
      stencil: full/bin/3d
      bin: kk/device
Per MPI rank memory allocation (min/avg/max) = 15.9 | 15.9 | 15.9 Mbytes
   Step          Temp          Press           CPU            Pxx            Pyy            Pzz            Pxy            Pxz            Pyz           KinEng         PotEng         TotEng         Volume           Lx             Ly             Lz          Atoms   
         0   3400           64926.693      0              64530.624      64954.416      65295.038     -818.57267      21.423832     -526.49983      7033.0703     -4000.2205      3032.8498      167941.93      43.790145      43.790145      87.58029           16004 
      1000   3367.8382      300058.87      6.4346425      301049.9       299422.04      299704.66      1157.6088      2757.9187      2898.9839      6966.5421      4615.1251      11581.667      156233.34      42.74788       42.74788       85.495759          16004 
      2000   3383.5859      297802.9       12.837457      299828.53      297243.13      296337.05     -760.3048       2550.6835      369.64181      6999.117       4491.0332      11490.15       156331.69      42.756847      42.756847      85.513695          16004 
      3000   3405.6725      301752.54      19.244413      302520.18      301166.05      301571.4      -385.431       -3369.0449     -4961.9381      7044.8041      4363.3951      11408.199      156107.46      42.736395      42.736395      85.47279           16004 
      4000   3404.6173      300369.61      25.650981      299036.15      301846.79      300225.89      2767.8081     -640.22315     -1166.6806      7042.6214      4508.8494      11551.471      156297.38      42.753719      42.753719      85.507439          16004 
      5000   3400.4936      300067.04      32.056846      301187.41      298880.45      300133.27      356.23739      244.05449     -1827.3536      7034.0914      4372.4027      11406.494      156156.04      42.740828      42.740828      85.481655          16004 
      6000   3410.6143      298697.4       38.463175      299960.53      297079.13      299052.55      1529.6697      2294.4821     -1196.0065      7055.0265      4506.1341      11561.161      156296.77      42.753664      42.753664      85.507328          16004 
      7000   3399.7865      301255.82      44.868407      301040.93      302308.4       300418.14     -1827.254       1502.8563      2263.8088      7032.6287      4405.0283      11437.657      156110.63      42.736685      42.736685      85.47337           16004 
      8000   3406.6859      300571.52      51.273078      299249.47      300811.46      301653.61      1911.7026      47.162296     -2245.2774      7046.9005      4452.9644      11499.865      156221.45      42.746795      42.746795      85.49359           16004 
      9000   3423.0045      301836.09      57.679084      300868.44      301935.35      302704.47      549.69834      950.39187      1863.5864      7080.6563      4429.3633      11510.02       156074.38      42.733376      42.733376      85.466752          16004 
     10000   3398.8484      308951.81      64.085802      308264.62      309059.15      309531.65      110.43886     -495.79199     -566.50132      7030.6883      4563.9794      11594.668      155763.32      42.704968      42.704968      85.409935          16004 
Loop time of 64.0858 on 8 procs for 10000 steps with 16004 atoms

Performance: 6.741 ns/day, 3.560 hours/ns, 156.041 timesteps/s
61.9% CPU use with 1 MPI tasks x 8 OpenMP threads

MPI task timing breakdown:
Section |  min time  |  avg time  |  max time  |%varavg| %total
---------------------------------------------------------------
Pair    | 61.036     | 61.036     | 61.036     |   0.0 | 95.24
Neigh   | 0.087635   | 0.087635   | 0.087635   |   0.0 |  0.14
Comm    | 0.36844    | 0.36844    | 0.36844    |   0.0 |  0.57
Output  | 0.013431   | 0.013431   | 0.013431   |   0.0 |  0.02
Modify  | 2.316      | 2.316      | 2.316      |   0.0 |  3.61
Other   |            | 0.2647     |            |       |  0.41

Nlocal:          16004 ave       16004 max       16004 min
Histogram: 1 0 0 0 0 0 0 0 0 0
Nghost:          13633 ave       13633 max       13633 min
Histogram: 1 0 0 0 0 0 0 0 0 0
Neighs:              0 ave           0 max           0 min
Histogram: 1 0 0 0 0 0 0 0 0 0
FullNghs:  1.47815e+06 ave 1.47815e+06 max 1.47815e+06 min
Histogram: 1 0 0 0 0 0 0 0 0 0

Total # of neighbors = 1478154
Ave neighs/atom = 92.361535
Neighbor list builds = 278
Dangerous builds = 0
run  990000
Per MPI rank memory allocation (min/avg/max) = 16.08 | 16.08 | 16.08 Mbytes
   Step          Temp          Press           CPU            Pxx            Pyy            Pzz            Pxy            Pxz            Pyz           KinEng         PotEng         TotEng         Volume           Lx             Ly             Lz          Atoms   
     10000   3398.8484      308951.81      0              308264.62      309059.15      309531.65      110.43886     -495.79199     -566.50132      7030.6883      4563.9794      11594.668      155763.32      42.704968      42.704968      85.409935          16004 
     11000   3439.1207      304472.18      6.4037853      305516.35      304774.4       303125.79      515.1179      -632.05777     -1067.6838      7113.9934      4470.2288      11584.222      155984.32      42.725156      42.725156      85.450311          16004 
     12000   3415.5073      300174.48      12.809871      301449.6       301102.77      297971.08      318.31914     -3561.5104     -1763.3473      7065.148       4385.0339      11450.182      156110.78      42.736698      42.736698      85.473396          16004 
     13000   3444.9506      297736.01      19.213446      296761.86      297604.46      298841.7       638.20489      835.33461     -668.91083      7126.0529      4402.4801      11528.533      156332.26      42.7569        42.7569        85.513799          16004 
     14000   3398.5666      299916.55      25.617848      301677.39      297394.29      300677.96      1302.7692     -856.2864       1781.5558      7030.1053      4397.9076      11428.013      156218.43      42.746519      42.746519      85.493039          16004 
     15000   3418.3231      297913.75      32.022562      298141.53      297057.05      298542.66     -1913.3474     -3647.0092     -27.582231      7070.9726      4487.8352      11558.808      156323.78      42.756126      42.756126      85.512252          16004 
     16000   3394.9845      298197.88      38.428451      298602.23      296579.38      299412.02     -1199.1631      384.93063      931.41685      7022.6956      4399.0819      11421.778      156235.25      42.748053      42.748053      85.496107          16004 
     17000   3382.7559      295916         44.834415      294870.96      297606.14      295270.92     -275.24357     -604.75258      2425.6836      6997.4001      4516.28        11513.68       156482.8       42.770619      42.770619      85.541237          16004 
     18000   3397.8342      294968.19      51.239105      293839.83      294478.9       296585.84      1865.9229      33.876986     -392.92707      7028.5903      4377.3978      11405.988      156468.13      42.769283      42.769283      85.538566          16004 
     19000   3392.6514      301092.88      57.643964      301405.82      302707.35      299165.45      4313.3614      367.39768      514.21043      7017.8693      4463.2126      11481.082      156135.91      42.738992      42.738992      85.477983          16004 
     20000   3410.5753      301930.06      64.049226      302095.35      302451.28      301243.56     -3303.7975     -265.93482     -2649.9614      7054.9459      4466.5514      11521.497      156109.42      42.736574      42.736574      85.473148          16004 
     21000   3373.5993      305361.72      70.4549        305302.08      304695.7       306087.38      155.04876      1120.8705      699.81104      6978.4593      4442.3298      11420.789      155924.63      42.719705      42.719705      85.439409          16004 
     22000   3400.407       301387.7       76.861704      300781.64      301376.87      302004.59     -282.1996       2322.6769     -676.02857      7033.9122      4494.9366      11528.849      156057.8       42.731863      42.731863      85.463727          16004 
     23000   3383.4963      302266.63      83.265989      303231.22      301755.83      301812.84      1806.9286      1458.0169      3591.7643      6998.9316      4433.4021      11432.334      155992.62      42.725913      42.725913      85.451826          16004 
     24000   3400.2854      297167.12      89.670723      298011.32      296816.8       296673.25      3036.8765      400.6359       1122.5594      7033.6607      4505.2425      11538.903      156343.12      42.757889      42.757889      85.515779          16004 
     25000   3393.6493      296014.57      96.075974      295654.43      295345.46      297043.82      50.089282      360.79131      468.36638      7019.9336      4401.3853      11421.319      156368.8       42.760231      42.760231      85.520461          16004 
     26000   3380.0155      294842.31      102.47827      293808.13      295891.69      294827.13      553.79543     -388.63017     -2075.1142      6991.7313      4473.8392      11465.57       156479.45      42.770314      42.770314      85.540628          16004 
     27000   3389.3939      297927.97      108.88289      298055.71      296830.22      298897.99      1318.5166      854.41682     -566.85337      7011.1311      4446.3942      11457.525      156226.39      42.747245      42.747245      85.494491          16004 
     28000   3382.1152      303045.13      115.28709      301940.07      302587.61      304607.72      66.487637      362.39676      475.14679      6996.0747      4441.4684      11437.543      155979.18      42.724686      42.724686      85.449372          16004 
     29000   3410.0617      302034.9       121.69217      302785.95      302099.32      301219.42      1914.2618     -982.62613      1500.8466      7053.8834      4549.2972      11603.181      156103.41      42.736026      42.736026      85.472052          16004 
     30000   3382.6571      303978.64      128.09574      303403.92      304975.61      303556.39     -2006.5143      1301.4517     -2821.1648      6997.1957      4487.4832      11484.679      156039.97      42.730236      42.730236      85.460471          16004 
     31000   3417.0594      296911.12      134.49906      297441.69      295584.13      297707.55      1645.2398     -1731.9308      974.69772      7068.3586      4401.7276      11470.086      156312.29      42.755079      42.755079      85.510157          16004 
     32000   3389.4084      298005.52      140.89699      299338.59      297782.99      296894.98      978.49167      489.74797     -1027.2775      7011.1611      4397.7556      11408.917      156268.08      42.751048      42.751048      85.502096          16004 
     33000   3399.1909      295750.62      147.29857      295648.87      297179.93      294423.06      1925.9835      135.83152      733.68722      7031.3968      4420.9449      11452.342      156417.97      42.764712      42.764712      85.529423          16004 
     34000   3396.4945      295453.19      153.69894      294685.35      296487.78      295186.43     -1144.5016      1009.3608     -1854.3584      7025.819       4347.4868      11373.306      156380.05      42.761256      42.761256      85.522511          16004 
     35000   3403.0202      297046.06      160.10279      296438.95      297719.49      296979.74     -603.4528      -3183.2286     -247.24495      7039.3178      4361.4617      11400.78       156247.91      42.749208      42.749208      85.498415          16004 
     36000   3405.8678      301591.85      166.5052       301475.64      301068.31      302231.61     -1873.8601      1415.602       2533.8451      7045.2082      4523.0829      11568.291      156118.83      42.737433      42.737433      85.474866          16004 
     37000   3396.5076      304543.54      172.90735      305302.11      303274.25      305054.26     -1367.7813      1748.1039     -844.57199      7025.8462      4455.8858      11481.732      155913.78      42.718714      42.718714      85.437428          16004 
     38000   3386.81        303452.33      179.30887      303994.63      302922.94      303439.43     -4065.105       801.96381     -3182.4733      7005.7861      4444.637       11450.423      155930.56      42.720246      42.720246      85.440492          16004 
     39000   3407.6106      300933.9       185.711        299524.7       302416.01      300860.99     -933.90293     -2336.6583     -1175.617       7048.8132      4496.375       11545.188      156130.01      42.738453      42.738453      85.476905          16004 
     40000   3370.0824      299463.26      192.11468      299620.04      301581.72      297188.04     -2476.1216      2863.1752      1076.6676      6971.1842      4477.128       11448.312      156106.53      42.736311      42.736311      85.472621          16004 
     41000   3394.9337      297204.85      198.51784      296667.89      298353.22      296593.45      509.40827     -1743.6193     -2144.8352      7022.5904      4348.4893      11371.08       156248.85      42.749294      42.749294      85.498588          16004 
     42000   3375.029       293090.41      204.9191       293794.49      292706.86      292769.89      1881.8183     -124.89537     -362.2495       6981.4166      4434.5168      11415.933      156531.52      42.775057      42.775057      85.550114          16004 
     43000   3373.0467      297022.95      211.32008      295342.39      297246.22      298480.24      885.71179     -956.84319      3596.2437      6977.316       4436.8135      11414.13       156293.09      42.753328      42.753328      85.506656          16004 
     44000   3413.1887      300371.75      217.72105      298873.19      301117.55      301124.51      2899.0586      1519.301       2499.1478      7060.3518      4495.9621      11556.314      156182.83      42.743272      42.743272      85.486543          16004 
     45000   3411.8884      299904.54      224.12235      299458.57      300677.51      299577.54      356.22801      996.61144     -1354.3763      7057.6622      4422.9826      11480.645      156177.95      42.742826      42.742826      85.485653          16004 
     46000   3443.7884      297283.29      230.52631      298311.76      296642.69      296895.4       617.85935      3179.9835     -911.25559      7123.6488      4439.0764      11562.725      156398.69      42.762955      42.762955      85.525909          16004 
     47000   3402.7047      296705.77      236.93289      296356.87      296537.93      297222.51     -287.65119      64.95065       1549.6004      7038.6651      4377.6036      11416.269      156340.92      42.757689      42.757689      85.515377          16004 
     48000   3402.0407      294285.6       243.33605      293770.9       295555.63      293530.27     -908.30487     -1857.2242     -163.52905      7037.2917      4270.8038      11308.096      156374.97      42.760793      42.760793      85.521586          16004 
     49000   3390.8494      296760.23      249.7401       296077.76      297906.81      296296.12      2466.1329     -610.16606     -1404.3156      7014.1419      4479.5953      11493.737      156404.97      42.763527      42.763527      85.527054          16004 
     50000   3382.0596      298403.89      256.14003      297923.36      298483.56      298804.74     -784.21336      1183.7584      513.30823      6995.9596      4464.4241      11460.384      156199.71      42.744812      42.744812      85.489624          16004 
     51000   3430.4176      299678.43      262.54128      300148.29      297823.62      301063.37      1166.2917      641.52489     -1215.94        7095.9906      4486.808       11582.799      156193.94      42.744286      42.744286      85.488571          16004 
     52000   3390.3413      302626.36      268.94312      303392.59      303213.28      301273.21     -259.85981      1033.4602      3468.095       7013.0909      4519.6492      11532.74       156031.61      42.729473      42.729473      85.458946          16004 
     53000   3415.4493      302652.32      275.3444       302505.59      303707.53      301743.83     -720.43971     -1576.056      -493.38354      7065.0279      4490.3428      11555.371      155987.12      42.725411      42.725411      85.450821          16004 
     54000   3385.9078      301360.18      281.74917      301498.73      301635.76      300946.04      3253.7368      76.867373      3276.0185      7003.9199      4457.2523      11461.172      156022.78      42.728666      42.728666      85.457333          16004 
     55000   3393.2933      294953.39      288.15144      294654.48      295634.38      294571.32      347.7678       3201.4904      778.73092      7019.1972      4464.0057      11483.203      156416.37      42.764566      42.764566      85.529132          16004 
     56000   3356.738       297030.43      294.55348      295811.56      296961.54      298318.2      -1136.2476     -324.12588      274.33162      6943.5807      4414.5332      11358.114      156243.26      42.748784      42.748784      85.497567          16004 
     57000   3403.2257      300986.32      300.95552      300892.69      299874.99      302191.28     -319.83373     -1899.803       1023.6421      7039.7429      4439.3243      11479.067      156122.57      42.737774      42.737774      85.475547          16004 
     58000   3452.3482      300153.83      307.3564       301098.84      299501.29      299861.36     -2333.6942     -768.64571      373.53415      7141.3552      4525.5105      11666.866      156219.54      42.74662       42.74662       85.493241          16004 
     59000   3384.5866      300604.2       313.75777      301161.35      300202.39      300448.86      516.34928     -2918.861      -2244.7242      7001.187       4469.1442      11470.331      156006.31      42.727163      42.727163      85.454326          16004 
     60000   3395.1382      305915.37      320.15996      306273.99      305587.75      305884.37      2752.5892      109.86908     -384.72192      7023.0135      4479.6023      11502.616      155811.51      42.709371      42.709371      85.418742          16004 
     61000   3392.845       303645.75      326.5619       303427.56      303470.16      304039.54     -946.36576     -1362.9071     -1462.1422      7018.2699      4535.9487      11554.219      155935.13      42.720664      42.720664      85.441328          16004 
     62000   3393.7903      298202.95      332.96149      297689.51      299598.11      297321.25      949.01152     -1581.9521      1524.556       7020.2253      4453.6763      11473.902      156224.68      42.747089      42.747089      85.494178          16004 
     63000   3447.1122      296761.35      339.36322      298765.2       295983.99      295534.86      722.86729      1592.0775      686.52917      7130.5242      4419.8256      11550.35       156361.69      42.759583      42.759583      85.519165          16004 
     64000   3420.3744      296890.11      345.76469      297052.97      296383.72      297233.63      4722.5105     -3074.7516     -800.40146      7075.2157      4413.228       11488.444      156349.71      42.758491      42.758491      85.516981          16004 
     65000   3388.9729      297110.5       352.16764      297921.65      296734.12      296675.74      1122.3154     -27.730724     -630.51214      7010.2603      4467.1157      11477.376      156300.44      42.753998      42.753998      85.507997          16004 
     66000   3415.9729      299284.06      358.57212      299999.51      298363.96      299488.71      287.24705      2711.9258     -397.05009      7066.1111      4459.7772      11525.888      156193.72      42.744266      42.744266      85.488532          16004 
     67000   3385.6953      300166.48      364.97172      299351.21      299613.64      301534.6      -1622.3977      686.46444     -53.116706      7003.4803      4346.1576      11349.638      156126.26      42.738111      42.738111      85.476222          16004 
     68000   3422.0128      297384.38      371.37362      296417.71      298374.38      297361.06      252.5321      -508.20101      822.80535      7078.6049      4407.9979      11486.603      156332.28      42.756902      42.756902      85.513803          16004 
     69000   3335.5578      296064.19      377.77462      295247.05      296222.65      296722.87     -94.231976      1343.106       1461.7841      6899.7684      4448.9776      11348.746      156358.56      42.759297      42.759297      85.518594          16004 
     70000   3394.8859      292110.17      384.17538      292016.35      291615.64      292698.53     -2715.3013      746.16394      2516.3788      7022.4916      4369.0093      11391.501      156552.86      42.777001      42.777001      85.554002          16004 
     71000   3425.2522      297957.67      390.5778       296758.6       299703.95      297410.45      20.781319      4.3370951     -691.99336      7085.3058      4450.8087      11536.115      156301.84      42.754126      42.754126      85.508252          16004 
     72000   3377.8579      301825.07      396.9776       301341.72      301329.94      302803.57      3275.4101      1575.1068      323.35804      6987.2683      4500.3205      11487.589      156051.74      42.73131       42.73131       85.46262           16004 
     73000   3416.4994      300317.02      403.38121      299575.17      300499.92      300875.97     -1748.0645      2557.9075      853.43501      7067.2002      4515.2303      11582.43       156199.96      42.744834      42.744834      85.489669          16004 
     74000   3406.3974      302197.13      409.78155      304049.16      301385.1       301157.13     -1064.3221     -1865.1471     -2593.9861      7046.3037      4450.0371      11496.341      156088.16      42.734634      42.734634      85.469269          16004 
     75000   3441.5897      297914.84      416.18165      298010.01      297612.83      298121.68     -2320.5886      390.05071      1226.5712      7119.1008      4486.8816      11605.982      156275.93      42.751763      42.751763      85.503526          16004 
     76000   3427.2359      296791.4       422.58243      297852.2       297348.3       295173.7       929.97985     -1332.43       -2479.277       7089.4091      4362.1652      11451.574      156331.91      42.756867      42.756867      85.513734          16004 
     77000   3409.1845      293557.21      428.98435      295341.07      291147.77      294182.78      2792.0114     -1883.4958     -275.24291      7052.069       4389.1411      11441.21       156532.87      42.775181      42.775181      85.550361          16004 
     78000   3398.5148      296172.26      435.38479      295763.55      296188.07      296565.17      772.72916     -1392.9754      667.65573      7029.9982      4481.4363      11511.434      156398.6       42.762947      42.762947      85.525893          16004 
     79000   3387.6578      299965.22      441.79746      300304.09      299649.48      299942.08      1339.5913      287.25877     -954.63879      7007.5398      4416.4388      11423.979      156056.47      42.731741      42.731741      85.463483          16004 
     80000   3406.8123      299385.39      448.19839      300372.01      297574.52      300209.63      1125.0211     -2175.9875      3068.5905      7047.162       4488.4722      11535.634      156232.22      42.747777      42.747777      85.495554          16004 
     81000   3362.9288      301897.73      454.59762      303017.82      301504.99      301170.38     -37.707048     -1372.9406     -2618.5063      6956.3867      4449.7905      11406.177      155991.51      42.725812      42.725812      85.451623          16004 
     82000   3409.9337      301784.96      460.99936      303113.25      299977.37      302264.27     -912.86754     -463.07484      670.6223       7053.6187      4441.8543      11495.473      156037.45      42.730006      42.730006      85.460011          16004 
     83000   3434.8599      300041.35      467.40059      300724.79      300229.42      299169.85      5046.765       3138.5251      544.46791      7105.1799      4496.1937      11601.374      156185.47      42.743513      42.743513      85.487025          16004 
     84000   3365.9467      301463.89      473.79993      302448.34      299859.26      302084.08     -1834.0786     -1025.5545     -1019.0777      6962.6294      4464.9524      11427.582      156120.8       42.737613      42.737613      85.475226          16004 
     85000   3394.7195      296227.06      480.20143      295084.79      296138.26      297458.12      1562.4989     -2880.243      -1614.8978      7022.1473      4493.8416      11515.989      156357.07      42.759161      42.759161      85.518322          16004 
     86000   3415.1345      297244.23      486.59991      298399.04      295488.81      297844.82      237.08433     -1056.8204      341.4556       7064.3768      4350.3204      11414.697      156381.8       42.761415      42.761415      85.52283           16004 
     87000   3360.0536      297144.23      492.99945      297248.58      296605.83      297578.28     -900.95196      1083.9096      1974.5803      6950.4393      4390.0301      11340.469      156310.32      42.754899      42.754899      85.509797          16004 
     88000   3375.5172      299447.06      499.39981      299382.19      299434.28      299524.71     -1807.2627      4793.981       318.39613      6982.4264      4474.6267      11457.053      156155.96      42.740821      42.740821      85.481642          16004 
     89000   3380.3635      298848.34      505.79973      298705.26      298523.47      299316.3       383.70722      1165.324       786.9371       6992.4513      4530.1209      11522.572      156221.49      42.746799      42.746799      85.493598          16004 
     90000   3397.4958      302117.29      512.20065      301940.67      301772.65      302638.56      665.21185      2423.5445     -1138.8757      7027.8904      4413.0573      11440.948      156044.36      42.730637      42.730637      85.461273          16004 
     91000   3394.6179      300268.41      518.60203      300533.1       298089.45      302182.67     -1843.6227      1605.6648     -649.60908      7021.9372      4489.4852      11511.422      156201.84      42.745006      42.745006      85.490012          16004 
     92000   3357.125       299830.57      524.99829      299727.53      300303.24      299460.92      2884.7324      305.96323      20.667481      6944.3812      4391.6581      11336.039      156112.15      42.736823      42.736823      85.473646          16004 
     93000   3415.778       299767.77      531.3989       300334.36      299296.39      299672.56      326.43506     -168.47706     -93.468457      7065.7078      4498.6517      11564.36       156174.1       42.742476      42.742476      85.484952          16004 
     94000   3327.9638      296425.5       537.79941      295300.91      297297.96      296677.65     -501.6784      -528.42744     -303.20596      6884.0598      4408.8572      11292.917      156189.14      42.743848      42.743848      85.487695          16004 
     95000   3389.0002      297691.71      544.19762      297828.27      298761.19      296485.66     -2639.3753     -1924.8964     -559.92167      7010.3166      4405.3941      11415.711      156314.92      42.755318      42.755318      85.510636          16004 
     96000   3405.0297      296281.6       550.59798      296179.11      295146.54      297519.16     -197.84237      4187.69       -414.99022      7043.4746      4391.6513      11435.126      156341.67      42.757757      42.757757      85.515515          16004 
     97000   3417.9625      297006.67      556.99673      297967.49      295870.04      297182.48     -582.90866      2624.1301      2422.4305      7070.2267      4376.1914      11446.418      156227.48      42.747345      42.747345      85.49469           16004 
     98000   3442.8784      298057.3       563.39619      297186.89      299067.6       297917.4       1695.1069     -756.40036      1119.6292      7121.7664      4398.1048      11519.871      156214.72      42.746181      42.746181      85.492361          16004 
     99000   3388.0541      303032.26      569.79573      302699.72      304022.67      302374.38      943.42391     -1190.7833      2384.0883      7008.3596      4518.5171      11526.877      155974.52      42.724261      42.724261      85.448521          16004 
    100000   3381.8335      306510.33      576.19997      307060.34      305028.06      307442.58     -343.60728      524.10371     -1767.5456      6995.492       4481.7587      11477.251      155782.57      42.706727      42.706727      85.413453          16004 
    101000   3432.9233      302603.57      582.59737      303545.04      302274.61      301991.07     -420.45685      2592.681       320.65498      7101.1739      4532.61        11633.784      156061.7       42.732219      42.732219      85.464438          16004 
    102000   3383.4075      298638.59      588.99721      299739.67      299127.05      297049.04      848.81258     -86.917018     -1110.8024      6998.748       4466.3642      11465.112      156288.03      42.752867      42.752867      85.505734          16004 
    103000   3384.535       297106.02      595.39622      296478.06      297692.48      297147.51     -1232.7281      738.23529      93.242235      7001.0801      4324.4863      11325.566      156210.54      42.745799      42.745799      85.491599          16004 
    104000   3376.0634      295464.28      601.79664      293316         296498.68      296578.15      269.93487      1257.624       1676.3098      6983.5564      4417.1003      11400.657      156393.75      42.762504      42.762504      85.525009          16004 
    105000   3390.5826      294432.56      608.19635      294986.7       295669.94      292641.06      587.81396      898.11391      1035.9792      7013.59        4451.221       11464.811      156474.59      42.769872      42.769872      85.539743          16004 
    106000   3360.9955      301112.89      614.59563      301352.28      301311.63      300674.75     -717.71966     -607.31865      2651.9706      6952.3876      4451.4555      11403.843      156047.18      42.730894      42.730894      85.461787          16004 
    107000   3392.207       304756.13      620.9955       305062.55      305304.64      303901.21     -1185.2304     -1578.8937     -1772.006       7016.95        4516.4088      11533.359      155925.69      42.719801      42.719801      85.439603          16004 
    108000   3407.801       302348.01      627.39436      303928.31      302408.26      300707.46      410.78774     -2713.371       302.66974      7049.207       4507.3302      11556.537      156104.68      42.736142      42.736142      85.472284          16004 
    109000   3381.673       297346.68      633.79359      298077.97      296005.39      297956.68     -773.77335     -402.11845     -1415.4176      6995.16        4486.9431      11482.103      156342.14      42.7578        42.7578        85.515601          16004 
    110000   3378.8073      294755.37      640.20549      293744.1       294656.44      295865.56      1014.9202     -44.677297      1061.2511      6989.2322      4335.6612      11324.893      156369.36      42.760282      42.760282      85.520563          16004 
    111000   3364.8956      290571.55      646.60511      290366.12      291423.65      289924.88     -215.02826      2857.354       557.5122       6960.4552      4460.6141      11421.069      156658.9       42.786657      42.786657      85.573315          16004 
    112000   3398.7037      299096.75      653.00631      300617.82      297911.16      298761.28      357.2224       1126.3143     -1548.1842      7030.3888      4441.6832      11472.072      156182.64      42.743255      42.743255      85.48651           16004 
    113000   3393.6764      302808.12      659.40519      303497.39      301232.2       303694.76      2211.4668      444.24363      596.69085      7019.9896      4451.3371      11471.327      155911.34      42.718491      42.718491      85.436983          16004 
    114000   3420.5571      302100.17      665.8042       301585.48      302836.32      301878.71      1594.7918      1390.5262     -209.49093      7075.5937      4491.6391      11567.233      155984.28      42.725152      42.725152      85.450303          16004 
    115000   3361.4941      303380.9       672.20248      304555.47      302387.41      303199.81      1461.997      -1.5269867      1202.7049      6953.4191      4529.1317      11482.551      155997.65      42.726372      42.726372      85.452744          16004 
    116000   3442.1341      299050.82      678.60362      298178.74      297850.11      301123.63      950.36543     -1830.6761      318.35764      7120.2267      4491.0327      11611.259      156226.27      42.747235      42.747235      85.49447           16004 
    117000   3428.4671      298789.76      685.00241      298047.65      299382.46      298939.18      1563.4032     -924.32738      296.60761      7091.9559      4397.1995      11489.155      156199.29      42.744774      42.744774      85.489547          16004 
    118000   3397.787       299069.34      691.40119      298166.45      299447.52      299594.04     -403.99541      664.54653      931.87037      7028.4927      4404.5764      11433.069      156150.75      42.740345      42.740345      85.48069           16004 
    119000   3436.793       297927.69      697.79891      297999.85      298189.61      297593.62     -794.86502      427.19338     -1301.1928      7109.1784      4461.4167      11570.595      156415.71      42.764506      42.764506      85.529012          16004 
    120000   3400.4141      298122.23      704.19749      297220.9       298666.51      298479.27      436.75516     -5019.4554      275.60416      7033.927       4389.7528      11423.68       156313.59      42.755197      42.755197      85.510394          16004 
    121000   3396.7058      298526.7       710.5973       298481.76      298821.59      298276.74     -530.66255      1959.3576     -144.94176      7026.2561      4469.7747      11496.031      156242.13      42.748681      42.748681      85.497362          16004 
    122000   3426.3253      301323.66      716.9967       300383.52      300934.25      302653.21     -1040.3985      873.71324      2037.8864      7087.5255      4363.1098      11450.635      156051.85      42.73132       42.73132       85.462641          16004 
    123000   3425.3022      301844.53      723.39771      302484.98      301414.28      301634.32      538.62815      1060.6741      399.79865      7085.4092      4520.2196      11605.629      156097.42      42.735479      42.735479      85.470959          16004 
    124000   3400.6075      303009.63      729.79665      302903.67      302442.01      303683.21     -67.276219     -3558.2924     -959.38426      7034.327       4539.5063      11573.833      156070.25      42.733         42.733         85.465999          16004 
    125000   3379.1878      298693.1       736.19528      299970.38      298098.27      298010.66     -1687.5451     -151.90291     -585.27529      6990.0193      4451.4042      11441.423      156260.55      42.750361      42.750361      85.500722          16004 
    126000   3408.0291      293648.19      742.59603      294034.57      293189.62      293720.38     -3086.2837      131.81631      662.98014      7049.6788      4449.944       11499.623      156528.53      42.774786      42.774786      85.549571          16004 
    127000   3367.1466      297473.24      748.99611      299833.56      296158.19      296427.97      3.8395399     -983.15689     -3748.0669      6965.1114      4433.4899      11398.601      156325.04      42.756241      42.756241      85.512482          16004 
    128000   3419.9575      297639.29      755.3947       298446.36      297400.43      297071.09      1643.2872     -707.49373      137.21709      7074.3534      4418.0798      11492.433      156254.22      42.749783      42.749783      85.499567          16004 
    129000   3380.983       300626.99      761.79477      301248.74      300434.85      300197.38      885.31067      745.44134     -3505.8968      6993.7328      4514.2677      11508.001      156096.76      42.735419      42.735419      85.470838          16004 
    130000   3385.4556      301631.8       768.19566      300887.76      301722.97      302284.67      1910.7677      980.39828     -59.378853      7002.9845      4467.8279      11470.812      156040.94      42.730324      42.730324      85.460649          16004 
    131000   3422.7981      302427.63      774.59642      304805.68      300229.72      302247.48     -385.18241     -1111.0757     -379.40913      7080.2294      4441.3224      11521.552      155984.38      42.72516       42.72516       85.450321          16004 
    132000   3398.6079      302667.83      780.99865      301857.92      302422.27      303723.3      -143.95379      2003.2073     -303.13611      7030.1906      4374.5896      11404.78       155951.4       42.722149      42.722149      85.444298          16004 
    133000   3363.842       299141.59      787.39892      298990.29      298110.28      300324.2      -763.26555     -4292.395      -1407.8146      6958.2758      4443.4183      11401.694      156223.31      42.746964      42.746964      85.493928          16004 
    134000   3420.2677      296903.96      793.799        295620.75      298706.75      296384.37      783.76143     -689.54178      988.3983       7074.9951      4403.016       11478.011      156408.77      42.763873      42.763873      85.527747          16004 
    135000   3366.1357      298390.8       800.19901      298508.21      296654.54      300009.65      1340.2035     -944.92391     -2207.6553      6963.0204      4400.7839      11363.804      156247.47      42.749168      42.749168      85.498336          16004 
    136000   3362.8408      300526.04      806.59667      300768.99      300236.74      300572.39     -1131.3814     -781.36378      632.57773      6956.2047      4481.1232      11437.328      156094.22      42.735187      42.735187      85.470374          16004 
    137000   3413.4646      298922.86      812.99646      299550.04      298329.74      298888.79      1802.7865     -2548.2366      2151.6498      7060.9225      4502.5474      11563.47       156263.69      42.750647      42.750647      85.501293          16004 
    138000   3375.9708      298308.41      819.39764      301201.89      297019.81      296703.54     -556.8942       935.98679      475.38059      6983.3648      4423.1749      11406.54       156136.97      42.739088      42.739088      85.478175          16004 
    139000   3416.0301      300087.41      825.79654      299261.61      298723.81      302276.82     -183.10103     -1746.1019     -1224.0174      7066.2293      4375.4032      11441.633      156069.93      42.73297       42.73297       85.46594           16004 
    140000   3395.2616      302568.85      832.19745      301488.47      303027.75      303190.34      1664.094       1965.3686      1375.4096      7023.2688      4483.8846      11507.153      156039.69      42.73021       42.73021       85.46042           16004 
    141000   3364.2993      301952.9       838.59622      301745.73      301983.92      302129.06      216.48063      2896.8154      1000.0615      6959.2217      4401.5492      11360.771      155975.01      42.724305      42.724305      85.44861           16004 
    142000   3405.4285      300248.27      844.99675      300023.38      299932.91      300788.53      2624.7633     -260.45542      944.56998      7044.2994      4452.0769      11496.376      156149.21      42.740205      42.740205      85.48041           16004 
    143000   3344.7007      298775.95      851.38524      298274.15      299269.05      298784.65      89.821388     -48.156612      1142.8935      6918.6809      4434.0195      11352.7        156157.33      42.740946      42.740946      85.481892          16004 
    144000   3411.7778      293854.85      857.77945      293138.35      294712.58      293713.62     -386.85795      2861.6616     -185.74413      7057.4334      4375.5193      11432.953      156466.28      42.769114      42.769114      85.538228          16004 
    145000   3383.7723      296804.48      864.17954      298866.07      295835.26      295712.12     -1188.5093     -145.04983     -3132.2616      6999.5025      4436.5245      11436.027      156360.69      42.759491      42.759491      85.518982          16004 
    146000   3406.661       299862.79      870.58036      299423.17      301575.99      298589.2       560.38253     -604.56112      2017.824       7046.8489      4357.7792      11404.628      156072.53      42.733207      42.733207      85.466414          16004 
    147000   3387.1763      300831.3       876.97588      299488.46      302631.65      300373.78     -253.7268      -798.8081       2396.5873      7006.5439      4526.1826      11532.727      156152.1       42.740468      42.740468      85.480937          16004 
    148000   3394.1146      299332.28      883.37458      300824.47      296177.04      300995.32     -4696.6841     -1106.9686      536.51383      7020.896       4403.1301      11424.026      156095         42.735258      42.735258      85.470517          16004 
    149000   3387.0933      301799.94      889.77639      300821.41      303307.86      301270.54     -3845.6673      845.96316     -824.39283      7006.3722      4475.2011      11481.573      156012.63      42.72774       42.72774       85.45548           16004 
    150000   3397.8108      305767.65      896.17926      306023.92      305000.44      306278.58     -754.04236     -141.45977     -865.23221      7028.5419      4468.2419      11496.784      155759.37      42.704607      42.704607      85.409214          16004 
    151000   3427.0524      303236.64      902.58412      303344.45      303696.97      302668.5      -502.46647      3314.3285      2608.6325      7089.0295      4566.2656      11655.295      156030.6       42.729381      42.729381      85.458761          16004 
    152000   3438.7943      302139.41      908.98484      302070.68      303039.9       301307.64     -589.33856     -1137.4548      106.24563      7113.3183      4426.0775      11539.396      155972.1       42.724039      42.724039      85.448078          16004 
    153000   3385.4898      300609.81      915.38903      300415.17      300276.57      301137.68     -546.06858     -545.53517     -544.47611      7003.0552      4458.6329      11461.688      156063.78      42.732408      42.732408      85.464817          16004 
    154000   3433.6458      296919.19      921.79255      296868.87      296714.4       297174.3       985.69212      1995.7369     -476.24681      7102.6683      4481.6593      11584.328      156360.25      42.759451      42.759451      85.518903          16004 
    155000   3367.878       294619.19      928.19502      295257.15      294103.8       294496.63     -1653.3206      1000.1705      403.25225      6966.6244      4417.5141      11384.139      156390.23      42.762184      42.762184      85.524367          16004 
    156000   3370.4194      296220.76      934.60011      296014.97      297854.69      294792.63     -3489.1085     -1094.5704     -375.27237      6971.8815      4369.8418      11341.723      156263.82      42.750659      42.750659      85.501317          16004 
    157000   3401.3371      298915.49      941.00468      299116.62      299250.74      298379.11      1334.7202      1609.4999      3140.934       7035.8362      4461.8075      11497.644      156280.88      42.752215      42.752215      85.504429          16004 
    158000   3386.0942      300296.4       947.40837      302678.34      298949.72      299261.13     -4489.1863      523.01645      2026.8495      7004.3054      4377.0479      11381.353      156073.33      42.73328       42.73328       85.466561          16004 
    159000   3409.9415      299548.84      953.81336      300996.23      298959.03      298691.25      1620.7559      2587.3728      1590.665       7053.6348      4430.0707      11483.705      156240.74      42.748554      42.748554      85.497107          16004 
    160000   3407.0632      300209.8       960.2203       298695.26      301623.6       300310.53      1198.2329      919.53784     -1267.9199      7047.6809      4433.965       11481.646      156187.09      42.743661      42.743661      85.487322          16004 
    161000   3385.8852      302888.79      966.62514      303639.74      301491.3       303535.32     -837.66832      1202.8734      977.80624      7003.8732      4506.398       11510.271      155991.9       42.725847      42.725847      85.451694          16004 
    162000   3415.2299      304072.05      973.0281       305408.18      303033.87      303774.08      956.52869     -1829.3304      1999.6778      7064.5741      4473.0796      11537.654      155988.4       42.725527      42.725527      85.451055          16004 
    163000   3395.4393      301495.34      979.43459      301485.95      302101.66      300898.42      1660.757       896.34995     -1100.6917      7023.6362      4489.754       11513.39       156086.92      42.734521      42.734521      85.469042          16004 
    164000   3421.1494      300060.56      985.8393       297416.75      300873.49      301891.45      92.876947      1948.6706     -1530.8255      7076.819       4482.9864      11559.805      156224.38      42.747062      42.747062      85.494125          16004 
    165000   3394.3776      300629         992.24481      301216.17      302096.88      298573.94     -1450.0495     -1415.2928     -1103.7659      7021.4402      4458.8735      11480.314      156176.49      42.742694      42.742694      85.485388          16004 
    166000   3369.4339      301221.17      998.65051      302197.71      300897.81      300567.98      441.06059      461.55339     -1930.0795      6969.8427      4381.4008      11351.243      156031.58      42.72947       42.72947       85.458939          16004 
    167000   3398.9229      297774.82      1005.0568      299967.33      295934.77      297422.37     -839.46881      3841.06       -2292.9255      7030.8424      4454.3153      11485.158      156282.12      42.752328      42.752328      85.504656          16004 
    168000   3379.6918      295953.08      1011.4625      296234.54      295536.13      296088.58      1800.566      -90.49044      -66.676465      6991.0618      4350.8901      11341.952      156271.28      42.751339      42.751339      85.502678          16004 
    169000   3398.0502      297008.33      1017.8663      296301.54      296210.55      298512.91      1336.9862     -1058.493      -95.678395      7029.0371      4405.2392      11434.276      156321.44      42.755913      42.755913      85.511826          16004 
    170000   3425.8555      298652.03      1024.2717      300359.86      297671.15      297925.09      758.44051     -252.64231     -3402.487       7086.5537      4399.0759      11485.63       156171.06      42.742198      42.742198      85.484397          16004 
    171000   3438.6239      312029.77      1030.6737      312982.25      309709.37      313397.7      -1467.615      -2052.9438      1641.5423      7112.9657      4589.8631      11702.829      155519.52      42.682675      42.682675      85.365351          16004 
    172000   3403.7747      305761.33      1037.0769      305240.97      306196.36      305846.68      2617.2959     -1759.7361      373.06996      7040.8785      4529.8638      11570.742      155837.86      42.711779      42.711779      85.423558          16004 
    173000   3376.5684      304066.24      1043.4817      304034.09      305467.71      302696.91      181.94394      148.19778      743.89017      6984.601       4493.4505      11478.052      155889.82      42.716525      42.716525      85.433051          16004 
    174000   3381.0262      301565.22      1049.8856      299762.6       301318.3       303614.76      2503.7682     -103.78605     -833.42456      6993.8221      4514.5926      11508.415      156062.93      42.732331      42.732331      85.464662          16004 
    175000   3418.0442      300305.44      1056.2881      299966.05      300948.5       300001.78      1581.6525     -1402.0759      534.20129      7070.3958      4466.8543      11537.25       156149.25      42.740208      42.740208      85.480416          16004 
    176000   3385.6959      299989.39      1062.6892      300146.09      298897.6       300924.48     -455.44717     -333.44953      524.87765      7003.4816      4442.792       11446.274      156168.07      42.741925      42.741925      85.48385           16004 
    177000   3380.5878      293056.51      1069.0905      292161.06      295036.26      291972.23      3711.5349     -787.45908     -1199.9425      6992.9152      4387.4417      11380.357      156488.49      42.771138      42.771138      85.542275          16004 
    178000   3405.6833      295298.83      1075.4928      295728.05      293943.31      296225.14     -19.311703     -292.05594      2009.4034      7044.8265      4361.8089      11406.635      156387.96      42.761977      42.761977      85.523954          16004 
    179000   3421.6991      296913.83      1081.8968      298122.18      296600.56      296018.76     -1179.5826      422.13416     -1890.8564      7077.956       4519.3979      11597.354      156311.61      42.755016      42.755016      85.510033          16004 
    180000   3392.1474      300372.48      1088.2997      299630.83      299845.88      301640.73      1872.7081      15.943492      1042.7574      7016.8269      4458.47        11475.297      156107.58      42.736406      42.736406      85.472812          16004 
    181000   3375.4206      303524.69      1094.7117      302164.38      304547.31      303862.39     -211.93405      419.09296      1733.9767      6982.2265      4553.1357      11535.362      155918.9       42.719181      42.719181      85.438363          16004 
    182000   3428.7953      305017.54      1101.1137      304514.48      304811.51      305726.63     -19.570175     -2358.0642      2039.5393      7092.6348      4539.0981      11631.733      155965.51      42.723438      42.723438      85.446875          16004 
    183000   3370.4518      301797.36      1107.5144      300529.63      302047.31      302815.13     -298.2398       1096.8493     -52.908989      6971.9483      4556.2513      11528.2        156030.46      42.729368      42.729368      85.458736          16004 
    184000   3387.8873      299094.06      1113.9178      296864.97      301585.13      298832.07      327.11423      1672.9956      3346.1949      7008.0147      4509.7249      11517.74       156244.2       42.74887       42.74887       85.49774           16004 
    185000   3371.2253      296649.92      1120.3213      297386.81      295595.46      296967.5       1055.6025      356.00584      1003.7343      6973.5484      4407.2895      11380.838      156216.27      42.746322      42.746322      85.492645          16004 
    186000   3370.967       300175.22      1126.7229      300248.56      301036.3       299240.81      1731.4669     -1097.43        2848.3263      6973.0141      4431.6239      11404.638      156086.38      42.734472      42.734472      85.468943          16004 
    187000   3422.4298      304285.95      1133.1255      306710.05      302397.98      303749.8      -284.19398     -855.90367      319.07846      7079.4675      4520.5787      11600.046      155911.38      42.718495      42.718495      85.43699           16004 
    188000   3394.5149      308806.22      1139.5273      309081.34      308816.53      308520.79      693.90131      677.27977      737.18785      7021.7241      4462.7949      11484.519      155594.59      42.689542      42.689542      85.379084          16004 
    189000   3386.6591      300300.17      1145.9297      300514.66      301025.66      299360.2      -3129.8637      399.58069     -2576.6389      7005.4741      4488.0288      11493.503      156111.73      42.736785      42.736785      85.473569          16004 
    190000   3365.8655      301551.53      1152.3324      301098.06      301729.4       301827.13     -1011.611      -3192.4489     -2220.1844      6962.4615      4463.8023      11426.264      156059.13      42.731984      42.731984      85.463968          16004 
    191000   3446.9299      298836.57      1158.7338      299738.43      300352.94      296418.32     -3014.0175      1370.099       123.17446      7130.1472      4338.8546      11469.002      156161.14      42.741293      42.741293      85.482586          16004 
    192000   3423.413       293316.47      1165.1367      293459.22      293523.43      292966.76     -2702.0816     -725.11321     -879.79033      7081.5014      4372.8718      11454.373      156523.26      42.774305      42.774305      85.548611          16004 
    193000   3375.6978      293443.97      1171.5391      293532.01      292625.95      294173.94      463.42956      356.24379     -2613.4415      6982.8         4331.21        11314.01       156632.77      42.784278      42.784278      85.568557          16004 
    194000   3439.1471      295839.16      1177.9407      294857.66      296396.61      296263.22     -1087.4903     -2477.69        52.018673      7114.0482      4408.4878      11522.536      156393.63      42.762494      42.762494      85.524988          16004 
    195000   3374.9303      299394.93      1184.344       299730.09      299864.54      298590.17     -882.25523     -1804.333       912.49033      6981.2124      4437.9465      11419.159      156173.12      42.742386      42.742386      85.484773          16004 
    196000   3393.1311      298103.68      1190.7478      297482.79      300084.66      296743.6       923.97092     -1107.9322      656.73775      7018.8616      4444.3115      11463.173      156266         42.750858      42.750858      85.501716          16004 
    197000   3417.7959      300674.34      1197.1491      300303.46      302327.8       299391.76     -635.72446      554.45071     -1206.9729      7069.8821      4462.9308      11532.813      156087.51      42.734574      42.734574      85.469149          16004 
    198000   3395.2719      307996.42      1203.5546      307699.54      308501.42      307788.3      -1372.7816      2394.9054      397.5624       7023.2901      4536.8138      11560.104      155736.51      42.702518      42.702518      85.405036          16004 
    199000   3398.8375      302415.16      1209.9588      301613.57      301712.49      303919.41     -233.54164     -1022.1664     -593.92238      7030.6657      4485.763       11516.429      155966.9       42.723565      42.723565      85.447129          16004 
    200000   3425.7356      298566.52      1216.3667      298563.64      297188.09      299947.82      2202.8313      1188.952       160.6963       7086.3057      4481.2132      11567.519      156239.09      42.748404      42.748404      85.496808          16004 
    201000   3382.7465      298927.59      1222.7706      299791.76      298917.03      298073.99     -654.56589      949.20728      1880.8504      6997.3807      4448.6853      11446.066      156189.73      42.743901      42.743901      85.487803          16004 
    202000   3417.2655      294671.21      1229.1744      295187.45      293996.62      294829.55      1615.5824      1068.3379      3406.596       7068.785       4466.6447      11535.43       156532.8       42.775174      42.775174      85.550349          16004 
    203000   3389.0757      293870.63      1235.5796      294064.9       294179.34      293367.65     -601.07287     -1242.8129     -472.93476      7010.4729      4384.2688      11394.742      156471.3       42.769571      42.769571      85.539143          16004 
    204000   3378.9119      294901.28      1241.9846      293913.65      295606.1       295184.08      968.7353       1280.184       2674.223       6989.4486      4454.4563      11443.905      156389.83      42.762147      42.762147      85.524294          16004 
    205000   3387.3464      301107.11      1248.3868      301718.22      300347.06      301256.03      771.78689      651.47515      1618.2657      7006.8957      4465.5696      11472.465      156037.18      42.729981      42.729981      85.459962          16004 
    206000   3413.7547      302531.43      1254.7899      304013.49      301670.99      301909.83      2546.9242      2880.4419      1707.3974      7061.5226      4482.7607      11544.283      156044.74      42.730671      42.730671      85.461343          16004 
    207000   3405.1091      302075.61      1261.194       302140.78      300715.29      303370.77     -2385.5839      797.89245      841.29075      7043.6387      4481.8818      11525.521      156025.21      42.728888      42.728888      85.457777          16004 
    208000   3337.1958      304176.37      1267.5963      305002.03      302785.13      304741.94     -3475.3997     -1310.0056     -1141.6604      6903.1567      4527.6616      11430.818      155864.6       42.714221      42.714221      85.428443          16004 
    209000   3383.3332      299456.22      1274.0005      299488.77      299080.45      299799.45      458.73523      3991.0147      267.11317      6998.5942      4486.061       11484.655      156224.19      42.747045      42.747045      85.494089          16004 
    210000   3411.029       297023.67      1280.4025      296504.35      295410.51      299156.16     -2632.9936      2422.9135     -1129.9823      7055.8844      4510.0126      11565.897      156287.07      42.752779      42.752779      85.505558          16004 
    211000   3402.391       299470.67      1286.8076      299485.12      298739.39      300187.48      1898.1062      384.14937      378.10442      7038.0162      4398.535       11436.551      156232.48      42.747801      42.747801      85.495602          16004 
    212000   3380.7376      294802.22      1293.2113      294426.46      294290.43      295689.77     -501.20283      756.56109      73.981061      6993.225       4377.0979      11370.323      156387.85      42.761967      42.761967      85.523933          16004 
    213000   3383.8986      295708.66      1299.615       294371.18      295423.27      297331.54     -1625.4076      2750.8454     -180.05199      6999.7637      4377.267       11377.031      156390.72      42.762229      42.762229      85.524457          16004 
    214000   3459.2         298344.93      1306.0164      299379.28      297363.7       298291.8       1467.2982     -2931.1636      1758.2615      7155.5285      4520.7186      11676.247      156345.12      42.758071      42.758071      85.516143          16004 
    215000   3370.6332      302035.97      1312.4172      302806.81      302280.7       301020.38      2138.669       247.21931     -205.43617      6972.3236      4482.206       11454.53       156042.28      42.730446      42.730446      85.460893          16004 
    216000   3414.0324      300172.58      1318.817       301675.39      299508.94      299333.41      905.94934      510.18211      30.246999      7062.0971      4521.1635      11583.261      156150.57      42.740329      42.740329      85.480657          16004 
    217000   3415.5474      299443.57      1325.2183      299145.41      298270.38      300914.93     -420.83749      80.444896     -953.26828      7065.2309      4473.8281      11539.059      156206.77      42.745456      42.745456      85.490912          16004 
    218000   3376.2235      294542.02      1331.6202      295620.63      293495.96      294509.48      3728.4505     -2755.5831      1961.0622      6983.8874      4445.9092      11429.797      156417.65      42.764683      42.764683      85.529365          16004 
    219000   3379.9264      294256.98      1338.0202      294746.1       293919.59      294105.26      922.74758     -921.56033     -2536.2516      6991.5471      4387.1898      11378.737      156500.68      42.772248      42.772248      85.544496          16004 
    220000   3409.97        297394.88      1344.4219      297834.58      297456.29      296893.77     -884.28647      1023.5055     -920.84745      7053.6937      4525.0953      11578.789      156334.23      42.757079      42.757079      85.514159          16004 
    221000   3416.6027      298513.11      1350.8255      298359.41      298505.09      298674.84      268.64222      1632.3451     -449.90291      7067.4139      4403.9534      11471.367      156213.4       42.746061      42.746061      85.492122          16004 
    222000   3395.1551      300534.51      1357.2293      302402.25      301052.98      298148.28     -235.61576      40.646427     -2517.366       7023.0484      4434.6865      11457.735      156139.12      42.739284      42.739284      85.478568          16004 
    223000   3390.2746      302001.15      1363.6344      302366.57      301091.77      302545.11     -1610.2646      481.18122     -1062.2832      7012.9529      4400.6413      11413.594      156077.79      42.733688      42.733688      85.467375          16004 
    224000   3425.5351      300999.3       1370.0362      300960.71      300314.75      301722.45     -232.05176      1868.739       2006.5959      7085.8909      4527.9442      11613.835      156179.25      42.742945      42.742945      85.48589           16004 
    225000   3414.8508      302073.33      1376.4385      302441.17      301975.87      301802.96     -4609.5504     -643.08849      1140.2721      7063.79        4410.1372      11473.927      156050.67      42.731212      42.731212      85.462424          16004 
    226000   3420.4741      297874.5       1382.8409      298906.12      298203.18      296514.19      1368.1634      1251.0475     -220.48324      7075.422       4397.1369      11472.559      156275.01      42.751679      42.751679      85.503359          16004 
    227000   3368.1959      295243.19      1389.244       296381.64      294145.48      295202.46     -1234.945      -2333.2708      1710.647       6967.282       4381.1137      11348.396      156390.38      42.762197      42.762197      85.524395          16004 
    228000   3412.2198      293328.54      1395.6458      294087.64      293732.55      292165.43     -142.01631      1016.8945     -792.56426      7058.3476      4426.3396      11484.687      156607.32      42.781961      42.781961      85.563923          16004 
    229000   3391.6544      298517.88      1402.0484      299125.04      297765.37      298663.22     -403.2406       2220.6502     -984.7403       7015.807       4403.8205      11419.628      156199.44      42.744787      42.744787      85.489574          16004 
    230000   3400.2131      300952.19      1408.4502      300642.37      300366.77      301847.44     -1557.6453      585.24128      3125.9042      7033.5111      4399.5539      11433.065      156094.16      42.735181      42.735181      85.470363          16004 
    231000   3408.6002      299776.37      1414.8537      298580.31      299082.58      301666.23     -912.97386      2590.1939     -329.97689      7050.8604      4457.122       11507.982      156132.21      42.738654      42.738654      85.477307          16004 
    232000   3440.288       301871.23      1421.2618      303349.38      301435.44      300828.86      638.51698      1989.7583     -675.09348      7116.4081      4413.8621      11530.27       156093.25      42.735098      42.735098      85.470196          16004 
    233000   3423.6043      304524.59      1427.6642      304929.89      305457.68      303186.19     -2712.4702     -20.929075      3687.8082      7081.897       4477.6326      11559.53       155961.83      42.723102      42.723102      85.446204          16004 
    234000   3399.1212      307584.69      1434.0679      307876.84      307343.38      307533.85      1258.5597      719.06713     -22.384385      7031.2525      4574.6817      11605.934      155740.37      42.702871      42.702871      85.405742          16004 
    235000   3428.6706      301990.62      1440.4701      303841.53      301742.42      300387.92     -2414.6514      1314.0107     -409.50109      7092.3768      4493.4924      11585.869      156080.54      42.733939      42.733939      85.467878          16004 
    236000   3406.0768      299184.07      1446.8761      301390.37      296126.18      300035.65      1925.1063      2431.2413     -1246.334       7045.6406      4500.337       11545.978      156195.76      42.744451      42.744451      85.488903          16004 
    237000   3409.8135      297388.07      1453.2781      297334.18      296571.36      298258.66     -809.1622      -692.92457     -671.47534      7053.3701      4381.6582      11435.028      156271.94      42.751399      42.751399      85.502798          16004 
    238000   3412.8568      294395.28      1459.6794      295146.3       293123.95      294915.59     -1233.3126      890.48386     -3678.6296      7059.6652      4448.1277      11507.793      156483.71      42.770702      42.770702      85.541404          16004 
    239000   3406.1512      294867.98      1466.0817      294021.44      293622.93      296959.57     -539.94583     -2152.8003      1273.3116      7045.7944      4367.1307      11412.925      156377.21      42.760997      42.760997      85.521994          16004 
    240000   3407.4292      294573.47      1472.4852      294698.95      293914.79      295106.67     -1833.4034      1289.5294      1274.5773      7048.438       4360.8596      11409.298      156435.74      42.766331      42.766331      85.532663          16004 
    241000   3402.2021      300353.36      1478.8865      299981.66      302588.78      298489.64      53.412559     -577.43585     -453.70686      7037.6254      4447.5217      11485.147      156099.79      42.735695      42.735695      85.471391          16004 
    242000   3387.1244      303486.99      1485.2895      303762.83      303260.13      303438        -2842.3292     -1040.0974      1753.2913      7006.4365      4501.4303      11507.867      155931.34      42.720318      42.720318      85.440635          16004 
    243000   3424.0668      303103.04      1491.6927      302800         303135.84      303373.29     -1351.0056      1265.0428      351.97549      7082.8538      4428.9072      11511.761      155957.5       42.722706      42.722706      85.445412          16004 
    244000   3386.5964      302128.17      1498.0949      302087.67      303501.75      300795.1       1957.3726     -3169.2834     -1485.2823      7005.3443      4408.8209      11414.165      155937.65      42.720893      42.720893      85.441787          16004 
    245000   3389.671       304492.44      1504.4976      307814.46      302671.25      302991.62     -1765.8379      1888.3005     -722.76273      7011.7042      4545.8124      11557.517      155947.99      42.721838      42.721838      85.443675          16004 
    246000   3398.7346      302451.35      1510.9         300932.62      304033.44      302387.99      1070.8575      206.53936     -755.19894      7030.4528      4429.3636      11459.816      155938.32      42.720955      42.720955      85.441911          16004 
    247000   3382.9893      297976.25      1517.304       299208.91      296867.4       297852.45     -2464.5676     -1034.2409      1092.8331      6997.8829      4483.6415      11481.524      156223.84      42.747012      42.747012      85.494025          16004 
    248000   3404.3948      299644.27      1523.7087      299586.12      299418.14      299928.55      27.331095      2716.1501     -745.49343      7042.1612      4375.7304      11417.892      156092.85      42.735062      42.735062      85.470124          16004 
    249000   3383.5806      298712.03      1530.1108      297864.11      297701.37      300570.62      2131.1629      1998.7366     -1181.4889      6999.106       4464.7003      11463.806      156162.08      42.741379      42.741379      85.482759          16004 
    250000   3372.4393      296002.43      1536.5133      296291.96      296287.53      295427.8      -1179.1539      2772.6025      1125.3329      6976.0597      4459.6438      11435.704      156315.44      42.755366      42.755366      85.510731          16004 
    251000   3387.4739      295395.32      1542.9169      295710.13      294988.92      295486.9       434.7295      -1225.7891      1170.3678      7007.1594      4425.6641      11432.824      156381.59      42.761397      42.761397      85.522793          16004 
    252000   3378.5701      298610.08      1549.3193      299509.54      298904.41      297416.3      -1232.2354     -518.78943     -3496.5499      6988.7414      4502.2359      11490.977      156230.23      42.747596      42.747596      85.495191          16004 
    253000   3391.3908      301729.03      1555.7229      302826.68      300967.17      301393.24      179.90319      730.08447     -663.79682      7015.2618      4424.8319      11440.094      156038.12      42.730066      42.730066      85.460133          16004 
    254000   3396.1422      303670.66      1562.1255      303430.85      304357.13      303224.02      2600.7341     -1995.2687     -1121.5872      7025.0902      4531.2288      11556.319      156013.74      42.727841      42.727841      85.455682          16004 
    255000   3441.4117      304219.01      1568.5271      304285.83      304261.61      304109.6      -1645.7788      622.35358      2390.152       7118.7325      4411.5862      11530.319      155968.05      42.723669      42.723669      85.447339          16004 
    256000   3443.2372      300469.97      1574.93        299100.96      301006.21      301302.73      666.69789     -2336.4752      2233.5962      7122.5086      4407.9983      11530.507      156227.23      42.747322      42.747322      85.494645          16004 
    257000   3356.6505      300992.21      1581.3297      301437.23      301575.07      299964.32      1053.2062     -562.56735     -26.447078      6943.3997      4420.2394      11363.639      156101.26      42.735829      42.735829      85.471659          16004 
    258000   3405.3609      297070.07      1587.7304      297738.15      296508.42      296963.64      613.77015      164.2412      -389.34706      7044.1597      4405.5038      11449.663      156283.77      42.752478      42.752478      85.504956          16004 
    259000   3372.668       292752.4       1594.1321      291825.19      293158.39      293273.62     -509.52808     -4634.4122     -2382.1029      6976.5328      4512.3743      11488.907      156635.47      42.784525      42.784525      85.569049          16004 
    260000   3412.8822      297009.09      1600.5325      297175.96      296472.34      297378.97     -2173.8906     -170.678       -2899.3437      7059.7178      4366.4838      11426.202      156342.53      42.757835      42.757835      85.515671          16004 
    261000   3397.6359      299663.17      1606.9341      299135.56      300227.38      299626.57      883.16562      1579.6592      1774.1599      7028.18        4424.2417      11452.422      156153.35      42.740582      42.740582      85.481165          16004 
    262000   3392.5369      299918.2       1613.3366      300704.6       297845.8       301204.21     -1381.2762     -2636.3276      1381.0695      7017.6325      4385.9462      11403.579      156163.76      42.741532      42.741532      85.483065          16004 
    263000   3389.053       301453.23      1619.7366      302557.48      300648.91      301153.31      2869.0579     -391.8679      -1271.5407      7010.4259      4521.7732      11532.199      156192.41      42.744146      42.744146      85.488292          16004 
    264000   3378.6186      301787.65      1626.137       301434.99      302006.44      301921.51     -1582.4216      2404.6003     -1536.4084      6988.8418      4431.321       11420.163      156009.24      42.727431      42.727431      85.454861          16004 
    265000   3392.6484      297642.2       1632.5382      299227.2       297048.39      296651.02      654.07106      2702.8136      584.30577      7017.8631      4425.7791      11443.642      156334.17      42.757074      42.757074      85.514148          16004 
    266000   3373.3342      293052.06      1638.9379      294417.06      292513.5       292225.63     -711.13067      800.30194      2762.9195      6977.9108      4375.2621      11353.173      156506.84      42.77281       42.77281       85.54562           16004 
    267000   3403.2588      296391.18      1645.3396      296564.91      295670.46      296938.16     -3887.1029     -2465.7848     -1215.7613      7039.8112      4507.128       11546.939      156389.03      42.762074      42.762074      85.524148          16004 
    268000   3380.2769      299092.38      1651.7412      300145.89      297170.64      299960.6      -2333.5346     -3140.1        -1938.2144      6992.2722      4484.8159      11477.088      156130.47      42.738495      42.738495      85.47699           16004 
    269000   3385.0217      299703.45      1658.1423      299858.19      298927.92      300324.25      1207.0123     -1448.8619      49.632678      7002.0869      4491.7199      11493.807      156066.85      42.732689      42.732689      85.465379          16004 
    270000   3412.6106      301762.96      1664.5433      301148.37      301436.39      302704.12     -504.62976     -1292.2005     -599.30268      7059.1561      4470.301       11529.457      156037.43      42.730004      42.730004      85.460008          16004 
    271000   3413.4053      305197.73      1670.9428      304541.33      304463.65      306588.21     -1807.3419     -476.15974     -3509.7129      7060.7999      4472.3708      11533.171      155842.22      42.712178      42.712178      85.424355          16004 
    272000   3420.7728      305542.23      1677.3437      303908.29      304936.92      307781.49      103.07026     -690.42717      20.00129       7076.0399      4480.7934      11556.833      155878.92      42.71553       42.71553       85.43106           16004 
    273000   3413.6117      298358.29      1683.7457      297346.18      299041.11      298687.59      705.79743      1164.9224     -3451.1189      7061.2268      4427.1703      11488.397      156270.6       42.751278      42.751278      85.502555          16004 
    274000   3358.0598      297759.51      1690.1459      296904.89      297168.61      299205.03      356.08482     -1867.6624      1818.6303      6946.3149      4433.5345      11379.849      156190.85      42.744003      42.744003      85.488006          16004 
    275000   3423.0052      295397.11      1696.5456      294810.25      296306.13      295074.96      3840.9782      355.16948      327.47778      7080.6577      4432.6469      11513.305      156354.48      42.758925      42.758925      85.51785           16004 
    276000   3376.1733      298945.7       1702.9446      298900.28      298169.55      299767.26      1408.1718     -1884.8297     -958.47573      6983.7835      4459.0439      11442.827      156198.58      42.744708      42.744708      85.489417          16004 
    277000   3385.5785      303950.04      1709.3448      303460.71      303653.25      304736.15     -233.02191      397.81847      3137.4283      7003.2387      4499.4169      11502.656      155903.53      42.717777      42.717777      85.435555          16004 
    278000   3394.6259      305911.53      1715.7442      306484.71      305096.16      306153.71      1510.921      -1848.4293      1781.6436      7021.9537      4548.8002      11570.754      155779.64      42.70646       42.70646       85.412919          16004 
    279000   3358.5368      304418.46      1722.1426      304189.04      304808.57      304257.77     -2499.0572      1564.1808     -172.53624      6947.3016      4517.1816      11464.483      155961.72      42.723092      42.723092      85.446184          16004 
    280000   3396.1431      300791.19      1728.5446      301127.5       299212.14      302033.94     -588.73399      112.27482     -941.06829      7025.0922      4454.0481      11479.14       156141.61      42.739511      42.739511      85.479022          16004 
    281000   3387.7445      297307.43      1734.9476      297648.04      296795.53      297478.71      520.29155      36.373247      369.03077      7007.7192      4378.5522      11386.271      156265.7       42.75083       42.75083       85.501661          16004 
    282000   3391.4349      296486.83      1741.3457      297142.12      295322.09      296996.27     -1718.7202     -725.17298      1433.4947      7015.353       4393.0311      11408.384      156329.96      42.75669       42.75669       85.51338           16004 
    283000   3434.6781      295644.89      1747.7457      294550.88      297910.73      294473.06      556.90786      183.37989     -1723.982       7104.8037      4437.4582      11542.262      156408.44      42.763844      42.763844      85.527687          16004 
    284000   3399.5041      301740.6       1754.1468      303045.98      300281.41      301894.41     -2048.2588     -78.796612     -118.23556      7032.0445      4451.6476      11483.692      156062.14      42.732259      42.732259      85.464519          16004 
    285000   3412.9252      301132.9       1760.5459      299742.29      300655.83      303000.58     -472.80615      3366.2275     -2078.9787      7059.8068      4527.8194      11587.626      156168.12      42.74193       42.74193       85.483861          16004 
    286000   3383.4976      301936.62      1766.9458      302624.21      300318.56      302867.08      2440.5897      930.54341     -4071.0574      6998.9342      4447.7057      11446.64       155975.34      42.724336      42.724336      85.448671          16004 
[...]
   3930000   3491.0412      293648.01      6757.8938      289243.5       289090.09      302610.45      3292.4682      144.9736       2122.842       7221.3936      8724.5102      15945.904      158994.8       42.947132      42.947132      86.201456          16004 
   3931000   3489.5737      298174.49      6765.1606      293379.78      295585.14      305558.55     -52.890132     -46.030533     -1457.6825      7218.3581      8791.9703      16010.328      158643.15      42.915446      42.915446      86.137858          16004 
   3932000   3467.0777      298660.33      6772.4229      295249.3       297089.7       303641.98      2040.9637     -2175.3622      2283.8779      7171.8239      8829.7268      16001.551      158684.68      42.919191      42.919191      86.145374          16004 
   3933000   3484.1168      300892.54      6779.6871      297259.79      296977.49      308440.35     -2511.6302     -953.03285      1635.6497      7207.0702      8823.3319      16030.402      158529.46      42.905192      42.905192      86.117277          16004 
   3934000   3489.3039      297478.66      6786.9505      295588.82      294141.96      302705.2      -546.64616     -1882.6239      79.849105      7217.7999      8797.1278      16014.928      158609.81      42.912439      42.912439      86.131822          16004 
   3935000   3498.1158      298276.83      6794.2204      295891.4       293484.5       305454.6       2558.2305     -3422.8369     -105.93519      7236.0278      8782.3286      16018.356      158585.6       42.910256      42.910256      86.12744           16004 
   3936000   3469.6725      301301.79      6801.4981      296661.32      298895.13      308348.91      404.70043     -2475.2148      3948.902       7177.1914      8866.5627      16043.754      158448         42.897842      42.897842      86.102524          16004 
   3937000   3503.6092      303736.76      6808.7755      297402.62      301840.89      311966.78      1965.2253      1431.3802     -700.46166      7247.3911      8834.1018      16081.493      158242.65      42.879302      42.879302      86.065311          16004 
   3938000   3477.5998      301681.06      6816.0518      298948.88      299764.33      306329.97      3176.3873      4240.1873      834.48143      7193.5894      8866.5465      16060.136      158356.5       42.889582      42.889582      86.085945          16004 
   3939000   3522.0763      306709.44      6823.3191      303543.91      303236.72      313347.68      2421.9486     -3692.105       1410.0451      7285.5912      8842.6576      16128.249      157993.22      42.856761      42.856761      86.020067          16004 
   3940000   3495.2888      305355.73      6830.5811      303023.81      302988.68      310054.7      -921.20228     -2820.8718     -2672.6317      7230.1799      8863.7608      16093.941      158172.76      42.872988      42.872988      86.052638          16004 
   3941000   3475.1334      304321.96      6837.8489      301365.45      303455.38      308145.04     -1791.5051     -3792.4483      3803.7401      7188.4876      8897.237       16085.725      158209.96      42.876349      42.876349      86.059384          16004 
   3942000   3480.7048      304490.49      6845.126       301013.05      300705.52      311752.88      1238.8261     -1432.9534      2457.4345      7200.0122      8876.6355      16076.648      158253.63      42.880294      42.880294      86.067302          16004 
   3943000   3498.3062      300672.42      6852.394       296777.8       295482.25      309757.19      3520.4118      679.98404     -2243.9022      7236.4217      8816.8652      16053.287      158373.59      42.891125      42.891125      86.089042          16004 
   3944000   3510.1169      298038.21      6859.6511      295399.12      293180.53      305534.98      5128.3738     -1921.9099     -3422.9267      7260.8526      8753.3179      16014.17       158581.53      42.909889      42.909889      86.126703          16004 
   3945000   3471.5024      299828.53      6866.9147      297570.86      295748.56      306166.19     -1057.2125     -3207.9202      1295.7244      7180.9767      8844.344       16025.321      158521.26      42.904452      42.904452      86.11579           16004 
   3946000   3491.8166      300808.13      6874.1823      297325.49      297700.87      307398.02     -470.3816      -1809.7234     -3968.4217      7222.9976      8838.7512      16061.749      158325.91      42.886821      42.886821      86.080402          16004 
   3947000   3481.0475      301834.07      6881.4532      299585.54      294926.02      310990.64     -4290.7581     -3291.4817      1621.548       7200.7212      8858.5753      16059.296      158336.41      42.887769      42.887769      86.082305          16004 
   3948000   3500.2586      302240.85      6888.7171      297978.73      301517.39      307226.43      1019.1169     -756.86964      1702.634       7240.4602      8816.6075      16057.068      158343.36      42.888396      42.888396      86.083565          16004 
   3949000   3510.6418      299545.66      6895.9854      293712         300326.23      304598.74      938.72582     -3742.581       269.10143      7261.9384      8746.5355      16008.474      158603.32      42.911854      42.911854      86.130648          16004 
   3950000   3500.8346      300487.13      6903.2551      298495.71      296118.63      306847.04     -1300.192       3234.9467     -455.3325       7241.6517      8756.0205      15997.672      158654.29      42.91645       42.91645       86.139873          16004 
   3951000   3508.8223      300425.74      6910.5249      296478.97      297204.63      307593.61     -2598.3976     -485.49344      353.63128      7258.1747      8784.6433      16042.818      158408.64      42.894289      42.894289      86.095392          16004 
   3952000   3492.8816      296369.5       6917.7928      293141.69      291063.53      304903.29      590.3201      -4568.9804     -770.3081       7225.2007      8764.2712      15989.472      158686.22      42.91933       42.91933       86.145652          16004 
   3953000   3484.2875      297115.66      6925.0568      292008.34      294230.96      305107.7       1885.9895      1463.3763      3209.9045      7207.4232      8820.0366      16027.46       158482.93      42.900994      42.900994      86.10885           16004 
   3954000   3495.6851      300668.77      6932.3259      298477.42      295500.88      308028.02      1982.6697      3900.901       2422.8777      7230.9997      8778.4287      16009.428      158575.35      42.909331      42.909331      86.125584          16004 
   3955000   3501.6354      300163.66      6939.5891      299272.12      296155.09      305063.76     -2197.3956      1486.9956     -2151.4282      7243.3082      8775.772       16019.08       158525.19      42.904807      42.904807      86.116503          16004 
   3956000   3519.7998      300348.48      6946.8555      295797.73      296266.63      308981.08     -478.40677      3384.5968     -389.37062      7280.8822      8754.403       16035.285      158436.91      42.896841      42.896841      86.100513          16004 
   3957000   3490.1421      302144.65      6954.1316      298952.84      299801.76      307679.36      1451.1947      862.93149      331.42987      7219.5338      8839.9946      16059.528      158303.44      42.884792      42.884792      86.07633           16004 
   3958000   3498.4902      301469.69      6961.4126      297565.42      297500.22      309343.43     -1113.1155     -1403.6955      1529.0928      7236.8023      8813.0148      16049.817      158355.44      42.889487      42.889487      86.085753          16004 
   3959000   3493.5801      306028.89      6968.691       303764.02      303016.75      311305.89      2152.2744      1479.4132     -973.07782      7226.6455      8879.7375      16106.383      158053.18      42.862181      42.862181      86.030946          16004 
   3960000   3476.2651      301967.98      6975.9817      296916.2       297651.93      311335.82     -1463.3698      139.59713      409.79095      7190.8284      8866.1034      16056.932      158314.54      42.885794      42.885794      86.078342          16004 
   3961000   3479.358       298802.9       6983.2497      295494.03      292360.1       308554.56      1614.6424     -5494.2133     -3821.9087      7197.2264      8833.3681      16030.595      158453.77      42.898363      42.898363      86.103568          16004 
   3962000   3491.7462      300583.55      6990.5262      296629.8       295566.63      309554.23      354.89021     -864.92478     -2180.4801      7222.8519      8826.7159      16049.568      158350.36      42.889028      42.889028      86.084833          16004 
   3963000   3466.4145      304808.67      6997.7883      299914.73      299799.12      314712.16      1893.8116      1814.3055      1853.2069      7170.4521      8914.3643      16084.816      158160.61      42.87189       42.87189       86.050434          16004 
   3964000   3511.7592      299797.68      7005.06        297757.83      295926.41      305708.8      -1581.5107     -1025.5536     -3158.74        7264.2499      8771.986       16036.236      158417.98      42.895133      42.895133      86.097085          16004 
   3965000   3507.0868      298713.12      7012.333       295515.87      293968.17      306655.31     -453.82643      1757.2422      79.390068      7254.5848      8769.5137      16024.099      158479.05      42.900644      42.900644      86.108147          16004 
   3966000   3515.9521      297720.47      7019.6087      296300.24      292763.23      304097.96     -80.559377      261.96394     -2240.7087      7272.9231      8718.8202      15991.743      158650.79      42.916135      42.916135      86.13924           16004 
   3967000   3508.6905      296967.97      7026.8787      293183.62      292731.25      304989.05      486.40492      1348.629      -2887.9839      7257.9022      8754.6918      16012.594      158533.12      42.905522      42.905522      86.117939          16004 
   3968000   3554.486       302906.3       7034.1506      299957.57      300274.36      308486.97      1208.0877     -7423.207       872.34534      7352.6324      8703.5678      16056.2        158300.05      42.884486      42.884486      86.075715          16004 
   3969000   3516.5322      300385.16      7041.4254      296054.31      295696.61      309404.55      1695.3351      659.26125      2324.7681      7274.123       8751.3348      16025.458      158459.79      42.898906      42.898906      86.104659          16004 
   3970000   3524.8874      296636.22      7048.7069      292110.73      294429.25      303368.69     -750.0841       4169.502      -799.44126      7291.4062      8708.8922      16000.298      158587.96      42.910468      42.910468      86.127867          16004 
   3971000   3470.0545      296205.86      7055.9917      293538.8       292456.06      302622.73      4781.2405     -59.345696      568.09014      7177.9817      8806.7034      15984.685      158668.73      42.917752      42.917752      86.142487          16004 
   3972000   3495.7073      302752.37      7063.263       299044.07      300179.12      309033.91     -1050.2118     -770.44917     -979.4178       7231.0457      8801.283       16032.329      158398.34      42.89336       42.89336       86.093527          16004 
   3973000   3528.0058      300936.71      7070.5341      296846.3       297317.45      308646.38      2354.2196      1251.9699     -7571.3263      7297.8568      8704.6964      16002.553      158553.12      42.907326      42.907326      86.12156           16004 
   3974000   3531.9635      302032.12      7077.8038      301821.35      298390.72      305884.29     -269.35088      977.01655     -906.9731       7306.0435      8753.343       16059.386      158250.25      42.879988      42.879988      86.066688          16004 
   3975000   3495.74        301617.96      7085.0782      299674.32      298361.32      306818.24      461.53101      1544.0581      6192.3887      7231.1134      8824.6943      16055.808      158269.9       42.881763      42.881763      86.07025           16004 
   3976000   3469.7988      299378.31      7092.3554      294167.82      300689.97      303277.13     -1282.9503     -1051.4944      821.93074      7177.4526      8899.9523      16077.405      158155.7       42.871447      42.871447      86.049544          16004 
   3977000   3503.1123      298670.27      7099.639       295541.63      294067.84      306401.35     -778.92368     -1979.0207     -3261.9029      7246.3634      8764.5904      16010.954      158506.42      42.903113      42.903113      86.113104          16004 
   3978000   3515.7726      299356.19      7106.9121      296108.07      294490.37      307470.14     -638.57813      507.78672     -5553.8616      7272.5517      8730.8863      16003.438      158541.41      42.90627       42.90627       86.11944           16004 
   3979000   3510.8188      296322.68      7114.1984      291747.56      292387.25      304833.22      151.70995      1003.5457     -83.183603      7262.3045      8724.8809      15987.185      158625.02      42.913811      42.913811      86.134575          16004 
   3980000   3509.3854      303381.48      7121.4803      299699.6       300958.07      309486.78      1382.0659     -1945.2861     -5357.9624      7259.3395      8807.1507      16066.49       158200.9       42.87553       42.87553       86.05774           16004 
   3981000   3523.9091      304685.93      7128.7614      300623         303988.01      309446.76      291.08367     -509.6153       1006.5061      7289.3825      8750.9801      16040.363      158334.05      42.887555      42.887555      86.081877          16004 
   3982000   3503.9216      301213.9       7136.0385      298242.59      297319.66      308079.44      2568.7716     -2071.2994     -929.07033      7248.0374      8773.0553      16021.093      158426.97      42.895943      42.895943      86.098713          16004 
   3983000   3470.2253      301302.29      7143.3187      296798.63      298954.44      308153.8       365.75839     -97.560309      1554.4649      7178.3348      8819.9915      15998.326      158543.7       42.906477      42.906477      86.119855          16004 
   3984000   3496.9555      300409.59      7150.6         295968.88      296401.57      308858.31     -1027.5542      956.52935     -404.32553      7233.6276      8789.6744      16023.302      158407.94      42.894226      42.894226      86.095265          16004 
   3985000   3519.2431      299302.59      7157.8924      295660.23      296100.36      306147.17     -357.46415     -1045.2625     -3179.5854      7279.7306      8719.951       15999.682      158531.13      42.905343      42.905343      86.117578          16004 
   3986000   3501.1479      296401.61      7165.1742      293108.92      292747.46      303348.45     -966.07845      7045.8657     -1511.9826      7242.2998      8736.0102      15978.31       158643.82      42.915506      42.915506      86.137978          16004 
   3987000   3523.5293      299498.18      7172.4665      294471.81      296118.13      307904.61     -284.66261      2343.0103      1461.0072      7288.597       8731.4521      16020.049      158417.2       42.895062      42.895062      86.096943          16004 
   3988000   3550.0043      302911.49      7179.7475      299008.84      299863.25      309862.38      1738.531       2170.2293      483.19549      7343.3617      8709.5133      16052.875      158240.85      42.879139      42.879139      86.064984          16004 
   3989000   3520.9083      303635.09      7187.0246      300062.16      299778.62      311064.49     -1305.7612     -2614.0928     -6610.1297      7283.1752      8735.5115      16018.687      158419.64      42.895282      42.895282      86.097385          16004 
   3990000   3503.044       301537.83      7194.3095      299432.18      295540.52      309640.78     -1591.6539     -2408.2704     -2428.139       7246.222       8769.9638      16016.186      158425.56      42.895816      42.895816      86.098458          16004 
   3991000   3479.2882      304528.36      7201.6025      302665.19      300864.47      310055.42      805.64438      4715.9653      3389.5888      7197.0819      8836.6856      16033.767      158326.97      42.886917      42.886917      86.080595          16004 
   3992000   3525.4835      299908.96      7208.8982      296845.8       297341.45      305539.62     -1052.4556     -1045.7258      406.39036      7292.6393      8703.1333      15995.773      158525.6       42.904844      42.904844      86.116577          16004 
   3993000   3503.9988      295648.08      7216.1748      291728.87      292361.28      302854.11      4139.455      -1864.3696     -2064.0625      7248.1971      8712.9425      15961.14       158710.89      42.921553      42.921553      86.150115          16004 
   3994000   3514.1302      295328.73      7223.4623      290640.8       289381.42      305963.98     -102.45675     -1724.2648      22.352103      7269.1544      8686.3865      15955.541      158734.21      42.923655      42.923655      86.154334          16004 
   3995000   3518.8703      303883.59      7230.7442      300027.23      298364.37      313259.17     -2098.5398      631.7869       1532.5882      7278.9594      8741.2313      16020.191      158384.82      42.892139      42.892139      86.091077          16004 
   3996000   3499.6593      304707.1       7238.0256      302279.47      304177.17      307664.66      718.16123      524.14943     -940.11582      7239.2206      8788.2298      16027.45       158338.11      42.887922      42.887922      86.082612          16004 
   3997000   3504.0113      302408.53      7245.3048      298181.03      296659.94      312384.62      779.26101     -2671.5091      2136.6162      7248.2229      8793.2441      16041.467      158263.55      42.881189      42.881189      86.069098          16004 
   3998000   3490.7176      303021.07      7252.5978      298398.79      301452.11      309212.32     -2255.0655      668.2568      -386.12738      7220.7243      8816.9787      16037.703      158283.44      42.882986      42.882986      86.072705          16004 
   3999000   3502.9336      296749.49      7259.8824      292423.12      294567.5       303257.84      538.99948      1689.1064      745.46301      7245.9937      8717.6756      15963.669      158676.73      42.918473      42.918473      86.143934          16004 
   4000000   3505.5442      296174.44      7267.1773      291139.97      290389.88      306993.47      1027.0333      48.080222     -1390.375       7251.3937      8678.4711      15929.865      158853.9       42.934442      42.934442      86.175985          16004 
Loop time of 7267.18 on 8 procs for 1000000 steps with 16004 atoms

Performance: 5.945 ns/day, 4.037 hours/ns, 137.605 timesteps/s
61.2% CPU use with 1 MPI tasks x 8 OpenMP threads

MPI task timing breakdown:
Section |  min time  |  avg time  |  max time  |%varavg| %total
---------------------------------------------------------------
Pair    | 6989.2     | 6989.2     | 6989.2     |   0.0 | 96.17
Neigh   | 10.181     | 10.181     | 10.181     |   0.0 |  0.14
Comm    | 37.943     | 37.943     | 37.943     |   0.0 |  0.52
Output  | 1.2979     | 1.2979     | 1.2979     |   0.0 |  0.02
Modify  | 203.17     | 203.17     | 203.17     |   0.0 |  2.80
Other   |            | 25.4       |            |       |  0.35

Nlocal:          16004 ave       16004 max       16004 min
Histogram: 1 0 0 0 0 0 0 0 0 0
Nghost:          13618 ave       13618 max       13618 min
Histogram: 1 0 0 0 0 0 0 0 0 0
Neighs:              0 ave           0 max           0 min
Histogram: 1 0 0 0 0 0 0 0 0 0
FullNghs:  1.46815e+06 ave 1.46815e+06 max 1.46815e+06 min
Histogram: 1 0 0 0 0 0 0 0 0 0

Total # of neighbors = 1468146
Ave neighs/atom = 91.736191
Neighbor list builds = 31192
Dangerous builds = 0
Total wall time: 7:21:54
