
atom_style atomic
units metal
boundary p p p
#atom_modify sort 0 0.0
newton on

read_data data.lammps
Reading data file ...
  orthogonal box = (0 0 0) to (43.790145 43.790145 87.58029)
  1 by 1 by 1 MPI processor grid
  reading atoms ...
  16004 atoms
  read_data CPU = 0.059 seconds
# replicate 10 10 20

### interactions

pair_style flare
pair_coeff * * lmp.flare
Reading potential file lmp.flare with DATE: Thu

# compute unc all flare/std/atom L_inv_lmp.flare sparse_desc_lmp.flare
# compute MaxUnc all reduce max c_unc

mass 1 12.011000
mass 2 28.085000

thermo_style custom step temp press cpu pxx pyy pzz pxy pxz pyz ke pe etotal vol lx ly lz atoms    #c_MaxUnc
thermo 1000
timestep 0.0005
restart 100000 restart_*.dat

#################### Equilibrate at P and T_es ##############################
velocity all create $T 41928459 rot yes dist gaussian
velocity all create 3800 41928459 rot yes dist gaussian
fix mom all momentum 1000 linear 1 1 1 angular

fix 1 all npt temp $T $T $(100.0*dt) iso $P $P $(1000.0*dt)
fix 1 all npt temp 3800 $T $(100.0*dt) iso $P $P $(1000.0*dt)
fix 1 all npt temp 3800 3800 $(100.0*dt) iso $P $P $(1000.0*dt)
fix 1 all npt temp 3800 3800 0.050000000000000002776 iso $P $P $(1000.0*dt)
fix 1 all npt temp 3800 3800 0.050000000000000002776 iso 600000 $P $(1000.0*dt)
fix 1 all npt temp 3800 3800 0.050000000000000002776 iso 600000 600000 $(1000.0*dt)
fix 1 all npt temp 3800 3800 0.050000000000000002776 iso 600000 600000 0.5
dump 1 all custom 1000 1equil.bin id type x y z vx vy vz
run   10000 # report performance
Neighbor list info ...
  update every 1 steps, delay 10 steps, check yes
  max neighbors/atom: 2000, page size: 100000
  master list distance cutoff = 6
  ghost atom cutoff = 6
  binsize = 6, bins = 8 8 15
  1 neighbor lists, perpetual/occasional/extra = 1 0 0
  (1) pair flare/kk, perpetual
      attributes: full, newton on, kokkos_device
      pair build: full/bin/kk/device
      stencil: full/bin/3d
      bin: kk/device
Per MPI rank memory allocation (min/avg/max) = 15.9 | 15.9 | 15.9 Mbytes
   Step          Temp          Press           CPU            Pxx            Pyy            Pzz            Pxy            Pxz            Pyz           KinEng         PotEng         TotEng         Volume           Lx             Ly             Lz          Atoms   
         0   3800           70189.119      0              69751.783      70235.542      70580.031     -874.11562      46.624223     -590.6524       7860.4904     -4000.2205      3860.2699      167941.93      43.790145      43.790145      87.58029           16004 
      1000   3875.8297      601010.57      6.5972064      599679.45      599204.73      604147.51      776.96977     -1044.5616     -1442.896       8017.348       8229.7009      16247.049      142869.94      41.492566      41.492566      82.985132          16004 
      2000   3773.8707      600266.69      13.215536      602957.15      597409.76      600433.17      1660.2947     -4082.2472      2412.5895      7806.4406      8025.4423      15831.883      142676.56      41.473837      41.473837      82.947674          16004 
      3000   3814.6582      599426.02      19.832554      598216.63      599684.69      600376.74     -930.6773       280.76775      134.6463       7890.8116      8095.4934      15986.305      142650.7       41.471331      41.471331      82.942661          16004 
      4000   3753.6826      599582.95      26.465036      601976.21      598000.58      598772.06      4535.0892     -2355.7763     -654.07791      7764.6805      8221           15985.681      142634.31      41.469742      41.469742      82.939485          16004 
      5000   3788.1914      598421.94      33.091925      599043.18      599708.81      596513.83      3654.4981      4093.3074     -416.24705      7836.0637      8060.3335      15896.397      142652.64      41.471519      41.471519      82.943037          16004 
      6000   3821.6584      597536.19      39.698053      595045.26      597806.87      599756.44      4232.743       575.52302     -8692.647       7905.2919      8141.8678      16047.16       142703.18      41.476416      41.476416      82.952832          16004 
      7000   3778.4719      603031.92      46.303732      602869.51      602197.42      604028.82      465.80622     -1007.717       741.28041      7815.9584      8160.8045      15976.763      142473.77      41.454178      41.454178      82.908356          16004 
      8000   3822.8816      599827.56      52.902973      599972.74      599590.67      599919.29     -2482.1217      1564.5738     -213.2221       7907.8222      8143.3802      16051.202      142604.3       41.466834      41.466834      82.933668          16004 
      9000   3804.6653      599316.58      59.503982      599745.69      597436.85      600767.2       2116.6922      1464.726       971.35894      7870.1409      8084.4189      15954.56       142598.96      41.466316      41.466316      82.932633          16004 
     10000   3794.2182      604853.31      66.103835      604544.41      604810.88      605204.65      749.53443      2550.3837     -6314.2134      7848.5304      8242.2127      16090.743      142463.24      41.453156      41.453156      82.906313          16004 
Loop time of 66.1039 on 8 procs for 10000 steps with 16004 atoms

Performance: 6.535 ns/day, 3.672 hours/ns, 151.277 timesteps/s
61.4% CPU use with 1 MPI tasks x 8 OpenMP threads

MPI task timing breakdown:
Section |  min time  |  avg time  |  max time  |%varavg| %total
---------------------------------------------------------------
Pair    | 62.966     | 62.966     | 62.966     |   0.0 | 95.25
Neigh   | 0.11997    | 0.11997    | 0.11997    |   0.0 |  0.18
Comm    | 0.39934    | 0.39934    | 0.39934    |   0.0 |  0.60
Output  | 0.027532   | 0.027532   | 0.027532   |   0.0 |  0.04
Modify  | 2.3252     | 2.3252     | 2.3252     |   0.0 |  3.52
Other   |            | 0.2654     |            |       |  0.40

Nlocal:          16004 ave       16004 max       16004 min
Histogram: 1 0 0 0 0 0 0 0 0 0
Nghost:          13922 ave       13922 max       13922 min
Histogram: 1 0 0 0 0 0 0 0 0 0
Neighs:              0 ave           0 max           0 min
Histogram: 1 0 0 0 0 0 0 0 0 0
FullNghs:  1.62219e+06 ave 1.62219e+06 max 1.62219e+06 min
Histogram: 1 0 0 0 0 0 0 0 0 0

Total # of neighbors = 1622192
Ave neighs/atom = 101.36166
Neighbor list builds = 289
Dangerous builds = 0
run  990000
Per MPI rank memory allocation (min/avg/max) = 16.2 | 16.2 | 16.2 Mbytes
   Step          Temp          Press           CPU            Pxx            Pyy            Pzz            Pxy            Pxz            Pyz           KinEng         PotEng         TotEng         Volume           Lx             Ly             Lz          Atoms   
     10000   3794.2182      604853.31      0              604544.41      604810.88      605204.65      749.53443      2550.3837     -6314.2134      7848.5304      8242.2127      16090.743      142463.24      41.453156      41.453156      82.906313          16004 
     11000   3823.4078      595881.83      6.6009369      597213.2       594710.28      595722.01      1619.829      -4625.2193      1161.4045      7908.9106      8030.1068      15939.017      142609.21      41.46731       41.46731       82.934619          16004 
     12000   3812.1555      590231.27      13.200994      590656.91      590950.48      589086.42      76.506305      158.55935     -409.97697      7885.6347      8021.9606      15907.595      142918.42      41.497259      41.497259      82.994517          16004 
     13000   3789.5285      601448.95      19.800916      600734.4       601817.13      601795.3       2815.1214      2061.4383     -3136.5367      7838.8295      8145.7384      15984.568      142496.1       41.456343      41.456343      82.912687          16004 
     14000   3829.1372      603728.7       26.406411      603994.78      605434.43      601756.89      1096.9191     -2628.6075     -960.53622      7920.7621      8131.5414      16052.303      142475.79      41.454374      41.454374      82.908747          16004 
     15000   3831.2383      600232.33      33.007634      600449.96      600800.1       599446.93     -962.86625      685.21012     -983.59165      7925.1084      8176.9429      16102.051      142627.28      41.469061      41.469061      82.938123          16004 
     16000   3781.5838      596137.9       39.607613      596877.79      596006.18      595529.73      1422.3242     -1272.9237     -1625.6043      7822.3955      8117.5357      15939.931      142692.05      41.475338      41.475338      82.950676          16004 
     17000   3790.6318      601002.7       46.210633      602548.63      601982.99      598476.48     -1833.9619     -2176.2767     -764.59477      7841.1118      8265.9049      16107.017      142531.16      41.459743      41.459743      82.919487          16004 
     18000   3788.9619      606372.53      52.810156      607679.39      605148.02      606290.19      1660.0513     -1087.7579      2511.8094      7837.6576      8250.6517      16088.309      142368.83      41.443997      41.443997      82.887995          16004 
     19000   3829.7764      597308.18      59.409841      597456.87      596427.74      598039.92     -2269.3313     -709.76583      1054.444       7922.0845      8194.2981      16116.383      142667.17      41.472927      41.472927      82.945853          16004 
     20000   3800.4842      593445.48      66.009595      593079.71      594445.49      592811.23     -1480.5921     -1137.3274     -763.18143      7861.492       8012.8539      15874.346      142854.59      41.491079      41.491079      82.982158          16004 
     21000   3770.8228      601502.2       72.607221      600993.73      601712.44      601800.43      2161.8718     -1681.1304     -579.05542      7800.1359      8196.6935      15996.829      142529.5       41.459583      41.459583      82.919165          16004 
     22000   3805.946       599773.14      79.207543      600742.8       599032.6       599544.03      3672.1504      445.61547      2825.6115      7872.79        8228.7609      16101.551      142595.28      41.46596       41.46596       82.931919          16004 
     23000   3814.923       599349.15      85.807346      595932.97      602125.1       599989.39     -2312.4538     -597.30682     -2569.4805      7891.3593      8155.9477      16047.307      142660.1       41.472242      41.472242      82.944483          16004 
     24000   3817.4755      599258.47      92.405092      597888.63      600230.02      599656.77      2435.077      -2306.4626      2016.3712      7896.6392      8050.5308      15947.17       142545.14      41.461099      41.461099      82.922197          16004 
     25000   3798.9131      601673.61      99.003616      603151.28      600801.97      601067.59      1179.4894      554.06244      4014.0687      7858.2422      8217.7283      16075.97       142560.34      41.462572      41.462572      82.925145          16004 
     26000   3791.5627      594141.4       105.60387      595811.64      591220.16      595392.4      -2057.7551      1406.3542      7134.4063      7843.0374      8045.5501      15888.587      142741.68      41.480145      41.480145      82.96029           16004 
     27000   3777.1597      592074.08      112.20151      592422.59      592739.76      591059.89      1928.3443     -204.85125     -281.99674      7813.2441      8096.787       15910.031      142870.88      41.492656      41.492656      82.985312          16004 
     28000   3792.5918      604479.89      118.8009       606002.5       604096.4       603340.77     -3042.1139      63.997527      582.31345      7845.1661      8110.089       15955.255      142388.15      41.445872      41.445872      82.891745          16004 
     29000   3837.7162      603043.8       125.40227      604548.48      600159.49      604423.42     -3127.0223     -1495.3434     -1364.1709      7938.5082      8165.0916      16103.6        142442.96      41.45119       41.45119       82.902379          16004 
     30000   3792.8037      596182.17      132.00177      598547.17      592725.94      597273.41     -3702.2341      431.13415      2747.6483      7845.6045      8030.9878      15876.592      142628.67      41.469196      41.469196      82.938391          16004 
     31000   3821.8405      599975.94      138.60171      599742.31      598670.49      601515.02      1262.9825      3145.5771     -2583.792       7905.6685      8117.4504      16023.119      142617.19      41.468083      41.468083      82.936166          16004 
     32000   3856.592       605313.26      145.20101      605857.34      605430.26      604652.18     -3177.2218      243.40449      3383.1837      7977.5538      8269.7659      16247.32       142407.07      41.447707      41.447707      82.895415          16004 
     33000   3820.3865      597025.28      151.7992       600300.58      595403.58      595371.66     -1101.6531     -3587.8013      2138.8518      7902.6609      8143.2451      16045.906      142721.28      41.478169      41.478169      82.956339          16004 
     34000   3792.9018      596033.35      158.39796      596752.34      597996.11      593351.61     -361.01803      1145.2819     -469.96811      7845.8075      8080.9928      15926.8        142736.67      41.47966       41.47966       82.959321          16004 
     35000   3843.773       603213.58      164.99903      602002.49      603848.98      603789.27     -280.91076     -1617.3267     -710.85258      7951.0369      8081.452       16032.489      142468.48      41.453665      41.453665      82.90733           16004 
     36000   3791.7401      601419.29      171.59657      602945.32      600028.25      601284.31     -874.44441      2820.8216      4033.151       7843.4044      8257.0083      16100.413      142494.1       41.45615       41.45615       82.9123            16004 
     37000   3723.1012      597026.74      178.19517      595719.6       598777.09      596583.54     -884.84742      1588.4767     -1720.3526      7701.4214      8098.7976      15800.219      142599.86      41.466404      41.466404      82.932807          16004 
     38000   3815.5616      594158.1       184.79501      592183.6       595644.44      594646.25     -1367.6977      1677.8032     -2203.4721      7892.6802      8074.3173      15966.998      142839.41      41.48961       41.48961       82.979219          16004 
     39000   3810.4953      602735.21      191.39251      604194.36      601628.66      602382.6      -2311.9338     -2001.534       3107.1211      7882.2005      8122.0864      16004.287      142475.41      41.454337      41.454337      82.908675          16004 
     40000   3845.623       605944.25      197.99103      606082.05      608275.1       603475.59     -2060.2027      1473.5998     -699.47269      7954.8639      8193.6742      16148.538      142440.33      41.450934      41.450934      82.901869          16004 
     41000   3805.5956      599080.04      204.59166      600120.29      598959.7       598160.13     -1814.0467     -3144.4185      479.12841      7872.0652      8127.1924      15999.258      142623.09      41.468655      41.468655      82.937309          16004 
     42000   3804.4987      596241.73      211.19142      594095.26      597701.59      596928.34      1804.9433      1066.7116     -3198.1407      7869.7961      8127.9778      15997.774      142678.96      41.474069      41.474069      82.948139          16004 
     43000   3794.0442      601995.06      217.78792      600594.74      602622.72      602767.72     -2998.2637      63.132736      1027.2256      7848.1705      8156.6585      16004.829      142493.67      41.456108      41.456108      82.912215          16004 
     44000   3834.5171      603888.46      224.38782      603804.43      603190.78      604670.17      4065.0793     -2162.4276      536.99311      7931.8908      8241.5186      16173.409      142491.6       41.455907      41.455907      82.911814          16004 
     45000   3785.1711      595612.57      230.9861       594861.91      596979.89      594995.91     -2601.1009     -1772.0225      3327.6331      7829.8161      8075.8877      15905.704      142773.59      41.483236      41.483236      82.966471          16004 
     46000   3789.8868      598882.62      237.58485      598202.86      598874.72      599570.29      889.55599     -1123.6062      512.48157      7839.5706      8029.8257      15869.396      142576.4       41.46413       41.46413       82.928259          16004 
     47000   3786.1424      602503.54      244.18395      600498.84      603150.56      603861.22     -1321.3099      841.2143       376.30811      7831.8253      8228.8457      16060.671      142463.16      41.453149      41.453149      82.906298          16004 
     48000   3794.1745      601723.33      250.7808       599907.17      602037.96      603224.84      993.32805     -32.157867     -3708.6703      7848.4401      8186.7964      16035.237      142490.2       41.455771      41.455771      82.911543          16004 
     49000   3818.5122      598402.43      257.37912      597208.5       599489.92      598508.86      1772.6492      1874.2716     -796.12271      7898.7839      8200.0024      16098.786      142674.91      41.473676      41.473676      82.947353          16004 
     50000   3779.8748      596134.99      263.97708      595115.41      598154.58      595134.97      2014.8854     -1441.0297     -3193.8626      7818.8604      8117.3919      15936.252      142694.92      41.475616      41.475616      82.951232          16004 
     51000   3845.1115      597720.35      270.57609      597554.59      598637.97      596968.51     -2083.6848     -3352.3706      2397.3413      7953.8057      8221.1237      16174.929      142662.99      41.472522      41.472522      82.945044          16004 
     52000   3808.4196      607789.75      277.17603      607687.14      607581.69      608100.42     -2097.3438      1197.2716     -2449.1599      7877.9067      8226.9528      16104.86       142311.36      41.438421      41.438421      82.876841          16004 
     53000   3801.4821      599669.5       283.7747       599717.32      598714.31      600576.87     -179.97749      151.76851     -2140.0777      7863.5562      8236.2301      16099.786      142627.56      41.469088      41.469088      82.938176          16004 
     54000   3772.0124      599159.81      290.37538      598808.65      600696.78      597974        -1075.6862     -2901.7937      234.05688      7802.5967      8169.774       15972.371      142575.5       41.464042      41.464042      82.928083          16004 
     55000   3809.498       598631.53      296.97516      599600.84      599137.79      597155.96     -1725.9812      1930.545      -308.16286      7880.1374      8252.1593      16132.297      142668.69      41.473074      41.473074      82.946147          16004 
     56000   3807.4965      604271.95      303.57216      602736.33      605297.16      604782.35     -364.60437     -14.357962      2030.6326      7875.9974      8121.0679      15997.065      142367.68      41.443886      41.443886      82.887772          16004 
     57000   3841.6948      609071.06      310.17199      608460.47      609896.16      608856.53     -3561.1643      2761.7548     -296.39779      7946.7381      8195.6341      16142.372      142232.28      41.430744      41.430744      82.861487          16004 
     58000   3822.9227      598867.29      316.77101      597913.17      597330.5       601358.19     -622.71609     -2743.0823      173.28223      7907.9072      8201.2215      16109.129      142664.15      41.472634      41.472634      82.945267          16004 
     59000   3821.1871      597110.19      323.36853      597112.5       596817.73      597400.33     -1522.8216     -2205.6665      64.625452      7904.317       8105.2562      16009.573      142672.3       41.473424      41.473424      82.946848          16004 
     60000   3799.6845      600576.92      329.96857      599609.53      601177.04      600944.18     -5249.2749     -5185.4314      1345.8191      7859.8378      8138.2202      15998.058      142549.4       41.461512      41.461512      82.923024          16004 
     61000   3802.9788      599897.04      336.56729      598895.59      600691.42      600104.1      -1732.214      -1480.9433     -853.93871      7866.6522      8238.0176      16104.67       142612.01      41.467581      41.467581      82.935161          16004 
     62000   3805.8518      598748.74      343.16523      598138.32      597849.38      600258.52      1858.4268      3700.2822     -630.10553      7872.5952      8102.2         15974.795      142630.23      41.469347      41.469347      82.938695          16004 
     63000   3794.6092      598818.8       349.76487      599228.16      599726.52      597501.72     -1036.3596     -63.771941      2449.1286      7849.3392      8170.0279      16019.367      142657.53      41.471993      41.471993      82.943985          16004 
     64000   3832.0109      608326.53      356.36299      607123.56      610268.16      607587.87      94.988984     -1717.4308      1123.3733      7926.7065      8302.7926      16229.499      142253.24      41.432778      41.432778      82.865557          16004 
     65000   3755.7914      603493.5       362.95998      604634.84      606658.82      599186.83      2717.2358      860.5758      -746.93218      7769.0427      8147.6203      15916.663      142413.65      41.448346      41.448346      82.896692          16004 
     66000   3772.095       597987.3       369.56125      596191.77      599284.84      598485.29     -2183.8911     -2943.4409      2559.0971      7802.7674      8069.8164      15872.584      142677.65      41.473942      41.473942      82.947884          16004 
     67000   3801.7675      599098.21      376.16086      597661.76      599742.22      599890.64     -1425.9899     -3487.9956     -2382.5459      7864.1466      8151.1033      16015.25       142633.32      41.469647      41.469647      82.939293          16004 
     68000   3800.4614      600740.88      382.75752      601686.69      598676.35      601859.58     -4926.2045      3493.7109      1987.1227      7861.4448      8133.6338      15995.079      142532.04      41.459828      41.459828      82.919657          16004 
     69000   3865.6599      600264.18      389.35628      600200.81      601178.11      599413.63      1684.1021      853.39612     -2740.7153      7996.3113      8164.2822      16160.593      142627.49      41.469082      41.469082      82.938164          16004 
     70000   3784.1899      597588.37      395.95443      598643.7       594597.1       599524.29      1456.1263     -1533.4409      1435.1742      7827.7865      8128.0456      15955.832      142646.57      41.470931      41.470931      82.941862          16004 
     71000   3823.0068      600214.98      402.5521       600852.14      600396.14      599396.64     -152.09515     -2102.9201      111.78231      7908.081       8166.3443      16074.425      142673.81      41.47357       41.47357       82.94714           16004 
     72000   3792.9373      604168.08      409.15344      605021.73      602685.97      604796.53      308.50256     -624.4445       2892.67        7845.8807      8191.9782      16037.859      142477.93      41.454581      41.454581      82.909163          16004 
     73000   3831.4202      600497.02      415.75115      601403.17      599822.48      600265.4      -1020.2966     -2768.0391     -430.49899      7925.4847      8064.5484      15990.033      142578.71      41.464353      41.464353      82.928706          16004 
     74000   3769.967       590959.92      422.34962      591453.06      591467.5       589959.19      1885.8464     -67.211572     -15.301493      7798.3657      7971.3725      15769.738      142861.92      41.49179       41.49179       82.983579          16004 
     75000   3813.1972      599186.79      428.94903      597641.07      601116.16      598803.14     -721.04147     -815.86628      2970.2932      7887.7895      8131.8265      16019.616      142623.38      41.468683      41.468683      82.937365          16004 
     76000   3795.2189      602413.7       435.54782      602521.58      603809.26      600910.26     -1883.0715      390.29658     -555.65734      7850.6005      8026.194       15876.795      142463.25      41.453158      41.453158      82.906316          16004 
     77000   3810.1939      599307.3       442.14508      598417.87      599232.63      600271.41      2044.5365      1356.5542      2262.5811      7881.5769      8160.9632      16042.54       142615.19      41.467889      41.467889      82.935778          16004 
     78000   3793.3309      595328.92      448.74478      596038.69      594705.31      595242.77      781.29958     -3295.7668      3541.6861      7846.695       8125.5996      15972.295      142706.48      41.476736      41.476736      82.953471          16004 
     79000   3802.8507      597975.56      455.34559      597173.69      596716.38      600036.62     -2712.9284      570.2796       873.19137      7866.3872      8109.8117      15976.199      142609.54      41.467341      41.467341      82.934682          16004 
     80000   3807.9673      604546.87      461.94505      605032.58      604850.97      603757.06      1774.9588      2559.6962     -3162.672       7876.9711      8203.706       16080.677      142402.92      41.447305      41.447305      82.89461           16004 
     81000   3836.7882      605987.37      468.54499      604480.43      606748.96      606732.72     -1388.3399     -1473.0716     -3327           7936.5887      8112.575       16049.164      142339.38      41.44114       41.44114       82.882279          16004 
     82000   3798.6576      595041.82      475.14327      595651.81      595282.77      594190.89      5186.0397      531.53098     -561.76919      7857.7136      8087.7656      15945.479      142709.54      41.477032      41.477032      82.954064          16004 
     83000   3774.6138      601086.94      481.74119      601079.92      600347.41      601833.5       2144.546       875.23336      729.77226      7807.9778      8150.4747      15958.452      142495.37      41.456273      41.456273      82.912545          16004 
     84000   3810.4619      601789.08      488.3409       601465.27      604573.42      599328.55     -404.63047     -3633.2541      1845.6815      7882.1314      8188.9173      16071.049      142515.06      41.458182      41.458182      82.916364          16004 
     85000   3807.6434      600162.45      494.9388       599472.27      601085.61      599929.46      2032.3174      405.57597     -2248.1112      7876.3012      8088.6901      15964.991      142589.42      41.465392      41.465392      82.930783          16004 
     86000   3842.692       595595.58      501.53714      595969.52      595829.32      594987.91     -1462.1615     -2329.5601     -1249.8267      7948.801       8126.6931      16075.494      142756.05      41.481537      41.481537      82.963075          16004 
     87000   3792.9122      604286.05      508.13499      603027.27      604325.18      605505.69      1715.4382      4084.1197     -4388.5098      7845.8288      8193.4229      16039.252      142409.08      41.447903      41.447903      82.895806          16004 
     88000   3798.2179      606530.92      514.7327       606079.02      607227.39      606286.35     -308.3876       67.569941      1368.6105      7856.804       8241.1653      16097.969      142347.55      41.441933      41.441933      82.883865          16004 
     89000   3766.9577      596840.3       521.32897      595988.67      596950.66      597581.59      4283.3187      1307.809      -1552.0129      7792.1408      8053.9602      15846.101      142661.85      41.472411      41.472411      82.944821          16004 
     90000   3830.2687      597989.21      527.9292       599143.09      597305.41      597519.14     -4084.2586     -786.4909       485.39664      7923.1028      8076.9897      16000.092      142670.33      41.473233      41.473233      82.946466          16004 
     91000   3833.0589      600267.58      534.52659      598252.57      600910.29      601639.87      859.4651       2474.7295     -3211.5093      7928.8743      8031.4988      15960.373      142586.81      41.465138      41.465138      82.930277          16004 
     92000   3798.3805      598774.44      541.12587      596453.12      599752.52      600117.68      1067.3414     -3410.6232     -895.92484      7857.1405      8132.5749      15989.715      142629.64      41.46929       41.46929       82.93858           16004 
     93000   3785.9465      604566.71      547.72369      603569.85      604593.83      605536.45      2175.8888      1130.0598      258.76475      7831.4201      8221.742       16053.162      142419.08      41.448873      41.448873      82.897747          16004 
     94000   3829.4         597708.58      554.32268      595170.15      595848.92      602106.68      1405.7412      1716.5279     -775.10854      7921.3058      8051.2238      15972.53       142635.92      41.469898      41.469898      82.939797          16004 
     95000   3753.2414      593943.38      560.92073      592681.25      596017.78      593131.13      2465.467      -3956.0455      1771.2721      7763.7679      8092.7213      15856.489      142801.92      41.48598       41.48598       82.97196           16004 
     96000   3832.6185      599345.57      567.51961      600129.18      599418.2       598489.32     -1050.1814     -931.65275      1876.0774      7927.9634      8118.2311      16046.195      142624.11      41.468754      41.468754      82.937508          16004 
     97000   3831.9003      600006.96      574.11622      602311.52      602752.09      594957.25      673.56455      812.40513      1248.4888      7926.4778      8074.1052      16000.583      142589.84      41.465432      41.465432      82.930865          16004 
     98000   3803.3444      603472.69      580.71478      605237.59      604185.61      600994.88      1388.1415      3119.3518     -140.10026      7867.4084      8200.3832      16067.792      142457.34      41.452584      41.452584      82.905168          16004 
     99000   3788.0283      604070.19      587.3128       603824.33      606106.09      602280.14      455.75741     -4555.1315     -2106.065       7835.7262      8142.7762      15978.502      142400.86      41.447105      41.447105      82.894211          16004 
    100000   3800.1254      594870.03      593.91628      596786.49      593329.39      594494.2      -649.6986      -1163.3142      3061.3772      7860.7499      8132.9323      15993.682      142772.53      41.483134      41.483134      82.966268          16004 
    101000   3761.5926      598072.97      600.51342      597783.08      598579.96      597855.87      235.45564     -795.6195      -1255.1392      7781.0427      8200.353       15981.396      142653.82      41.471633      41.471633      82.943265          16004 
    102000   3778.5565      605197.14      607.11479      603994.95      605685.84      605910.63     -1317.719      -34.372831      3508.7121      7816.1334      8210.042       16026.175      142349.12      41.442085      41.442085      82.884171          16004 
    103000   3813.616       600744.47      613.71234      600539.28      600892.26      600801.87      2524.5808      375.39971      1335.1935      7888.6558      8188.2658      16076.922      142576.51      41.46414       41.46414       82.928279          16004 
    104000   3820.4531      596579.92      620.30987      596659.79      596444.7       596635.26      2108.8375      2600.8756     -1877.0111      7902.7986      8056.4094      15959.208      142733.98      41.479399      41.479399      82.958798          16004 
    105000   3819.4097      598299.91      626.90705      597615.06      599175.19      598109.48      285.99867     -147.28406     -1401.2337      7900.6404      8129.6734      16030.314      142635.92      41.469898      41.469898      82.939797          16004 
    106000   3756.7501      606452.59      633.50392      604074.66      609200.44      606082.65     -3355.2766     -2443.48       -1074.4336      7771.0258      8157.4048      15928.431      142316.5       41.438919      41.438919      82.877839          16004 
    107000   3792.0106      597956.63      640.10212      596454.78      597836.66      599578.44     -734.56232     -4733.4013     -1123.2172      7843.964       8171.1034      16015.067      142626.64      41.468999      41.468999      82.937997          16004 
    108000   3784.6604      592733.13      646.70254      592710.85      593848.9       591639.64      3231.7822     -414.18333     -936.13483      7828.7596      8103.9191      15932.679      142805.35      41.486312      41.486312      82.972624          16004 
    109000   3790.3323      600631.81      653.29942      601282.33      599639.2       600973.9       1862.2271     -1478.7142     -522.12826      7840.4922      8154.8081      15995.3        142543.36      41.460926      41.460926      82.921852          16004 
    110000   3825.3466      603536.12      659.89677      603874.74      604266.8       602466.83     -2507.7216     -1935.9295      4524.9428      7912.921       8203.1104      16116.031      142505.6       41.457265      41.457265      82.914529          16004 
    111000   3810.1804      597882.08      666.49357      598154.48      600321.42      595170.34      597.37903      2570.8506     -1983.5927      7881.5491      8147.2612      16028.81       142668.43      41.473049      41.473049      82.946097          16004 
    112000   3807.3574      599646.04      673.09773      601463.75      597996.54      599477.82      1061.9584     -960.60662     -7265.8085      7875.7096      8088.7392      15964.449      142648.5       41.471117      41.471117      82.942235          16004 
    113000   3763.9874      599803.52      679.69637      596296.25      602972.42      600141.87      214.22189      834.27417     -2267.296       7785.9965      8104.6515      15890.648      142569.96      41.463505      41.463505      82.927009          16004 
    114000   3819.7932      604997.84      686.29205      607433.15      605450.51      602109.87      578.10194     -1205.529       2737.4071      7901.4336      8230.2624      16131.696      142391.77      41.446224      41.446224      82.892448          16004 
    115000   3772.8403      605533.25      692.89476      604726.15      606382         605491.59     -2762.8963     -611.7367      -492.01102      7804.3093      8179.2346      15983.544      142420.85      41.449045      41.449045      82.89809           16004 
    116000   3847.139       595327.56      699.50046      596390.84      595370.85      594220.98     -3983.94        116.86304     -3228.9321      7957.9998      8142.327       16100.327      142781.66      41.484018      41.484018      82.968036          16004 
    117000   3837.0592      600091.55      706.0956       601260.67      600155.04      598858.92     -3165.4192      2517.8492      1261.3263      7937.1491      8016.4598      15953.609      142634.74      41.469784      41.469784      82.939569          16004 
    118000   3820.4114      603718.49      712.69794      603487.83      605062.85      602604.79      1512.1134     -2321.1036      3572.8707      7902.7123      8259.5058      16162.218      142514.7       41.458147      41.458147      82.916294          16004 
    119000   3802.9809      601013.23      719.295        601256.64      600943.27      600839.78     -1237.7654      460.05891      1059.5394      7866.6566      8174.7034      16041.36       142584.21      41.464886      41.464886      82.929772          16004 
    120000   3805.3078      602733.63      725.88857      603289.58      601252.1       603659.2       1500.6541      4070.4602     -1236.2459      7871.4698      8069.5557      15941.026      142496.13      41.456347      41.456347      82.912694          16004 
    121000   3794.5936      600638.23      732.48414      600398.42      600633.49      600882.78      1907.9861     -2398.7852      424.36638      7849.3069      8119.3401      15968.647      142603.25      41.466732      41.466732      82.933465          16004 
    122000   3804.1777      589039.97      739.07938      590971.91      589519.09      586628.89      1713.637       2024.3222      342.1485       7869.1322      8061.0835      15930.216      142993.49      41.504523      41.504523      83.009046          16004 
    123000   3802.6317      599753.51      745.6741       600240.43      597699.4       601320.71      942.60775     -1533.9069      2088.8883      7865.9342      8150.8312      16016.765      142568.08      41.463322      41.463322      82.926645          16004 
    124000   3796.5935      602770.76      752.27201      603992.11      603009.25      601310.93     -2040.3666     -561.46976     -1142.4688      7853.4439      8166.7406      16020.184      142473.21      41.454124      41.454124      82.908247          16004 
    125000   3790.8074      598786.78      758.86785      599901.66      597587.93      598870.75     -1835.5865     -1728.055      -1147.8413      7841.475       8121.8086      15963.284      142579.98      41.464476      41.464476      82.928952          16004 
    126000   3798.9338      600663.82      765.46107      601405.91      597405.64      603179.9      -1743.9147     -2451.9824      3793.6321      7858.2849      8267.4767      16125.762      142558.42      41.462386      41.462386      82.924772          16004 
    127000   3822.1271      603930.32      772.05607      604248.49      604358.25      603184.22     -2141.5082      1794.7653      785.19266      7906.2614      8101.5612      16007.823      142435.56      41.450471      41.450471      82.900943          16004 
    128000   3816           591560.83      778.64988      590757.2       593402.09      590523.2      -467.5427       1350.6292      562.23148      7893.5872      7938.3461      15831.933      142852.23      41.490851      41.490851      82.981701          16004 
    129000   3817.1204      597776.62      785.24173      598304.51      598243.22      596782.14      2523.8673      2143.5458      191.88094      7895.9049      8061.2718      15957.177      142655.34      41.47178       41.47178       82.943561          16004 
    130000   3827.5375      603586.18      791.83719      603876.6       604134.44      602747.49     -1394.9798     -3293.9295      930.56267      7917.4531      8237.1839      16154.637      142430.85      41.450015      41.450015      82.90003           16004 
    131000   3810.7693      602801.36      798.43617      602105.89      604451.75      601846.44      645.59591     -56.787867     -3280.1152      7882.7672      8126.7585      16009.526      142456.03      41.452457      41.452457      82.904914          16004 
    132000   3841.1281      597759.25      805.03017      597511.7       596451.17      599314.87      1362.5437     -1000.2789      1739.5241      7945.566       8131.9867      16077.553      142678.9       41.474063      41.474063      82.948126          16004 
    133000   3782.9933      595174.52      811.62635      596052.93      594366.7       595103.94      1648.7451     -2879.9838      1665.0489      7825.3112      7998.7945      15824.106      142701.39      41.476243      41.476243      82.952485          16004 
    134000   3778.983       601996.5       818.22122      605384.98      601636.26      598968.25      1083.2253     -1550.2152      1297.5858      7817.0156      8251.9214      16068.937      142538.23      41.460429      41.460429      82.920857          16004 
    135000   3801.7957      604150.67      824.816        601748.71      605581.32      605121.98      2557.3903      942.4621       3789.7753      7864.205       8143.8314      16008.036      142431.3       41.450058      41.450058      82.900117          16004 
    136000   3849.1233      595557.34      831.41119      594502.25      594384.54      597785.24     -160.67378      286.69562     -3570.839       7962.1044      8005.9056      15968.01       142697.96      41.47591       41.47591       82.95182           16004 
    137000   3802.4571      594769.42      838.00542      596746.79      593555.31      594006.18     -22.3415        399.44136     -1260.3694      7865.5729      8084.0088      15949.582      142744.18      41.480387      41.480387      82.960775          16004 
    138000   3796.1416      603328.54      844.60087      602343.96      602879.41      604762.26     -1685.7676     -996.2305       2563.8305      7852.5092      8212.6968      16065.206      142446.23      41.451506      41.451506      82.903013          16004 
    139000   3748.807       601648.39      851.19617      600578.09      601445.8       602921.28     -3685.3642      1019.3996      2188.4352      7754.5951      8075.4843      15830.079      142414.81      41.448459      41.448459      82.896918          16004 
    140000   3823.3307      596895.34      857.79168      599512.62      593948.21      597225.2       4503.8292      2911.9994     -1035.2786      7908.7511      8143.7719      16052.523      142724.47      41.478478      41.478478      82.956957          16004 
    141000   3780.4954      596484.12      864.38484      594569.63      596494.2       598388.52      4011.4387     -1219.0643     -4205.5387      7820.1441      8082.5576      15902.702      142672.06      41.473401      41.473401      82.946801          16004 
    142000   3844.201       603531.85      870.98172      603792.78      602821.81      603980.96     -2255.3286     -1687.0982     -354.07963      7951.9223      8208.348       16160.27       142497.63      41.456492      41.456492      82.912983          16004 
    143000   3756.7829      601510.04      877.57792      601202.87      599832.15      603495.1       1785.6409     -583.23656      1989.3277      7771.0937      8182.5245      15953.618      142482.71      41.455045      41.455045      82.910091          16004 
    144000   3832.2473      594265.88      884.17078      594696.24      592956.64      595144.77      1634.0011      3370.6148      658.28544      7927.1956      8093.515       16020.711      142830.25      41.488723      41.488723      82.977446          16004 
    145000   3812.9183      597135.07      890.76391      598225.1       597204.64      595975.47     -1459.5523     -624.85312     -886.8559       7887.2125      7989.4014      15876.614      142671.67      41.473363      41.473363      82.946726          16004 
    146000   3823.0593      603778.14      897.35757      605862.7       603923.64      601548.09     -2047.8796      951.14836     -5113.4117      7908.1897      8209.5295      16117.719      142434.57      41.450375      41.450375      82.900751          16004 
    147000   3818.1641      602372.76      903.95268      601768.58      602290.61      603059.08     -2521.2568     -671.56485     -947.85856      7898.0638      8080.8092      15978.873      142435.52      41.450468      41.450468      82.900936          16004 
    148000   3813.5284      601584.41      910.54866      599306.17      601953.22      603493.83     -398.22435      1714.4639     -1783.6136      7888.4746      8180.454       16068.929      142498.18      41.456545      41.456545      82.91309           16004 
    149000   3794.7915      597248.94      917.14147      597428.82      596751.65      597566.36     -2783.3268      735.99672      3158.6605      7849.7164      8160.5388      16010.255      142651.43      41.471402      41.471402      82.942803          16004 
    150000   3796.187       596548.62      923.73947      597375.64      596191.34      596078.88      3761.9459     -954.3456       3049.1915      7852.603       8008.6943      15861.297      142688.5       41.474994      41.474994      82.949987          16004 
    151000   3829.3935      601933.14      930.33336      602779.81      600744.85      602274.74      577.13468     -797.59429     -1352.2053      7921.2924      8146.225       16067.517      142480.5       41.45483       41.45483       82.909661          16004 
    152000   3788.4714      606954.86      936.92769      606958.12      606908.86      606997.61     -1553.7651     -1261.9658      7045.9814      7836.6428      8266.6998      16103.343      142399.64      41.446987      41.446987      82.893975          16004 
    153000   3772.6717      597673.67      943.52275      598462.8       597007.89      597550.3       358.35794      517.40348      1380.2962      7803.9604      8074.2711      15878.231      142621.73      41.468523      41.468523      82.937046          16004 
    154000   3773.3335      594825.5       950.1172       593766.15      594213.23      596497.11      327.66351     -422.33339     -3716.8687      7805.3294      8160.5719      15965.901      142748.42      41.480798      41.480798      82.961597          16004 
    155000   3811.5082      599173.76      956.71123      597178.7       600038.25      600304.33      4244.5193      52.48687       1640.2592      7884.2957      8208.6869      16092.983      142585.74      41.465034      41.465034      82.930069          16004 
    156000   3768.9071      601227.65      963.30697      599591.01      604019.5       600072.43      1587.5387      1423.3759     -826.09136      7796.1731      8215.3457      16011.519      142535.22      41.460137      41.460137      82.920273          16004 
    157000   3817.7538      597611.85      969.90029      599449.88      597578.09      595807.56      367.24658      448.17266      2002.1696      7897.2149      8102.242       15999.457      142682.59      41.474421      41.474421      82.948842          16004 
    158000   3800.899       606207.86      976.49512      603400.82      608000.58      607222.18     -236.51023     -1767.6204     -5562.8247      7862.3501      8215.2109      16077.561      142412.24      41.44821       41.44821       82.896419          16004 
    159000   3802.8351      605177.18      983.08917      605097.02      605532.02      604902.5       817.98541     -525.1777       2365.5152      7866.3549      8203.4276      16069.783      142369.74      41.444086      41.444086      82.888171          16004 
    160000   3759.6751      592773.93      989.68628      594116.85      593704.4       590500.54     -1228.3584     -4152.4176     -1685.6422      7777.0763      8170.6124      15947.689      142792.95      41.485111      41.485111      82.970223          16004 
    161000   3809.1893      598013.39      996.28001      598082.64      599106.91      596850.62      2116.6053     -1405.0663      5204.498       7879.4989      8069.285       15948.784      142606.76      41.467072      41.467072      82.934144          16004 
    162000   3802.7076      601188.98      1002.8754      601273.69      600371.11      601922.13     -3108.6577      2698.76       -1404.681       7866.0912      8114.0182      15980.109      142552.21      41.461784      41.461784      82.923569          16004 
    163000   3823.299       596054.7       1009.4714      595566.69      597604.25      594993.17      371.8601       3215.0151     -5060.0173      7908.6855      8185.5442      16094.23       142740.74      41.480054      41.480054      82.960108          16004 
    164000   3789.8917      601155.68      1016.0662      602008.77      601517         599941.27     -4131.4912     -731.67769      478.95947      7839.5808      8137.113       15976.694      142549.89      41.461559      41.461559      82.923118          16004 
    165000   3855.9496      610128.01      1022.6615      608814.6       609211.34      612358.09     -771.50009     -562.7666       1233.6031      7976.2249      8284.1533      16260.378      142264.33      41.433855      41.433855      82.86771           16004 
    166000   3787.2341      599589.32      1029.2584      598368.86      600955.15      599443.96      4187.3727      1056.8754      1678.1762      7834.0834      8121.0178      15955.101      142568.14      41.463329      41.463329      82.926658          16004 
    167000   3788.5763      596446.37      1035.8526      596597.33      596249.34      596492.45     -655.47641     -5165.9907     -3955.2826      7836.8598      8131.6175      15968.477      142685.97      41.474748      41.474748      82.949497          16004 
    168000   3824.0821      599837.03      1042.4481      597812.91      600815.42      600882.76      6128.5951     -30.758131     -4135.0179      7910.3054      8207.3272      16117.633      142572.38      41.46374       41.46374       82.92748           16004 
    169000   3747.4283      603173.74      1049.0431      605173.99      603943.34      600403.88     -16.357175      557.0915       1540.8949      7751.7433      8274.6057      16026.349      142418.53      41.448819      41.448819      82.897639          16004 
    170000   3819.9607      600234.96      1055.6379      601162.25      601570.96      597971.67      3266.7927      284.11706     -332.24201      7901.7802      8201.1654      16102.946      142542.45      41.460838      41.460838      82.921677          16004 
    171000   3806.3239      593678.31      1062.2345      595203.29      592670         593161.65      1132.9948     -1588.2437      869.55663      7873.5717      8067.4594      15941.031      142823.05      41.488026      41.488026      82.976052          16004 
    172000   3810.9912      599145.24      1068.8298      597034.81      598739.52      601661.4       1885.5461     -1810.6196      320.07379      7883.2263      8125.9619      16009.188      142528.11      41.459447      41.459447      82.918895          16004 
    173000   3825.2383      603234.49      1075.4255      602827.94      602062.75      604812.78     -682.29494      1721.6062     -460.38041      7912.6971      8237.927       16150.624      142462.31      41.453067      41.453067      82.906133          16004 
    174000   3805.4116      602429.46      1082.0231      601248.22      602057.66      603982.5       398.7891       1429.3114     -2855.775       7871.6846      8163.7858      16035.47       142530.07      41.459638      41.459638      82.919275          16004 
    175000   3809.5686      595510.55      1088.6174      597407.6       593323.89      595800.17     -4914.4079     -1373.1323     -2106.2725      7880.2834      8050.7944      15931.078      142726.82      41.478706      41.478706      82.957412          16004 
    176000   3761.376       593494.52      1095.2097      592721.07      595531.77      592230.71      1248.8207      3956.6051     -1995.9206      7780.5946      8127.2321      15907.827      142803.42      41.486125      41.486125      82.972251          16004 
    177000   3835.3463      605021.14      1101.8022      602940.79      607205.32      604917.29     -3164.0667     -1473.9563     -7276.1104      7933.606       8231.0115      16164.617      142454.13      41.452273      41.452273      82.904547          16004 
    178000   3796.2708      601268.25      1108.3971      599136.28      598244.95      606423.53     -729.61643     -560.84448     -1315.573       7852.7763      8188.0898      16040.866      142516.15      41.458287      41.458287      82.916575          16004 
    179000   3762.0076      599851.25      1114.9907      599239.9       599872.58      600441.26      1225.8926      3268.8751      206.25069      7781.9012      8205.6219      15987.523      142647.96      41.471065      41.471065      82.94213           16004 
    180000   3806.869       594936.53      1121.5848      595527.21      594813.2       594469.19      230.37111     -2050.9537      1823.0303      7874.6993      7912.3602      15787.06       142740.99      41.480079      41.480079      82.960158          16004 
    181000   3813.3863      600733.45      1128.1778      601167.62      599199.81      601832.93     -1256.0766     -2393.246       906.32327      7888.1807      8185.2979      16073.479      142565.22      41.463046      41.463046      82.926091          16004 
    182000   3805.3689      605207.26      1134.7711      605000.61      605224.31      605396.86      2947.0666      139.74215     -251.78142      7871.5963      8207.7643      16079.361      142384.85      41.445552      41.445552      82.891103          16004 
    183000   3785.2014      596780.98      1141.3636      596932.05      594951.93      598458.95      393.94687      867.4234       86.221165      7829.8788      8059.4205      15889.299      142646.98      41.47097       41.47097       82.94194           16004 
    184000   3807.865       592289.32      1147.9598      592798.37      591352.63      592716.95      3340.1663     -2815.9693      1381.2795      7876.7595      8055.233       15931.993      142949.94      41.500309      41.500309      83.000617          16004 
    185000   3767.3807      601721.69      1154.5511      602650.77      600374.88      602139.42     -122.51585      48.267069     -927.8129       7793.0158      8128.2903      15921.306      142546.01      41.461183      41.461183      82.922366          16004 
    186000   3835.2766      602607.25      1161.1465      602417.14      601348.1       604056.51     -2161.7944     -3774.4302     -3582.8026      7933.4618      8144.9718      16078.434      142544.4       41.461027      41.461027      82.922055          16004 
    187000   3794.6233      599025.48      1167.74        599579.02      597828.79      599668.64      669.72154      1148.8404     -1583.1473      7849.3685      8134.988       15984.357      142675.95      41.473777      41.473777      82.947554          16004 
    188000   3766.6741      598010.89      1174.3335      600366.81      598225.8       595440.06     -3535.2133     -199.20716     -826.86425      7791.554       8019.3214      15810.875      142654.58      41.471707      41.471707      82.943414          16004 
    189000   3792.6828      598115.99      1180.928       597462.23      598486.23      598399.52      3907.8997     -3071.6714     -3557.9603      7845.3544      8128.2617      15973.616      142678.42      41.474017      41.474017      82.948034          16004 
    190000   3835.6528      607030.86      1187.5191      608358.37      605645.88      607088.32      2169.0016     -1126.1558      67.359319      7934.2399      8242.3447      16176.585      142310.1       41.438298      41.438298      82.876597          16004 
    191000   3763.895       599354.33      1194.1142      598720.41      599303.01      600039.57     -1014.1842     -3598.0422     -932.33159      7785.8054      8109.2296      15895.035      142561.81      41.462715      41.462715      82.92543           16004 
    192000   3792.1452      598347.17      1200.7101      598908.78      597037.44      599095.28      2426.4537     -1404.6972     -1589.36        7844.2423      8171.9668      16016.209      142684.37      41.474593      41.474593      82.949187          16004 
    193000   3797.8965      600769.71      1207.3044      599662.96      599262.7       603383.48      1357.937      -2121.478      -2760.6312      7856.1391      8096.6677      15952.807      142539.63      41.460565      41.460565      82.92113           16004 
    194000   3817.3003      601476.12      1213.8982      601040.36      601106.35      602281.65     -248.75159      3848.6216     -3021.2109      7896.277       8264.0621      16160.339      142583.15      41.464784      41.464784      82.929568          16004 
    195000   3781.7371      601371.77      1220.4921      601957.89      600192.19      601965.24     -598.97234     -1466.3732      1790.1035      7822.7128      8149.5574      15972.27       142522.93      41.458946      41.458946      82.917891          16004 
    196000   3796.5159      600237.09      1227.0837      600323.99      599126.08      601261.2       831.06599     -2016.7328     -2753.5552      7853.2834      8117.6922      15970.976      142612.33      41.467612      41.467612      82.935224          16004 
    197000   3781.76        600472.33      1233.6764      601361.94      599456.28      600598.77      225.51856     -351.77836      891.81882      7822.7601      8206.0155      16028.776      142574.12      41.463908      41.463908      82.927817          16004 
    198000   3809.4533      602877.51      1240.2695      602482.16      603439.05      602711.31     -6.717721      -1173.5346     -1414.0461      7880.045       8142.9524      16022.997      142446.62      41.451544      41.451544      82.903089          16004 
    199000   3781.2902      596827.82      1246.8626      595986.49      596594.3       597902.67     -1110.5954      2350.7535     -2677.6847      7821.7882      8060.1071      15881.895      142717.7       41.477822      41.477822      82.955645          16004 
    200000   3799.0699      594349.65      1253.4636      596657.33      592727.87      593663.76      1993.6464     -2008.9772     -739.08527      7858.5663      8104.4531      15963.019      142818.83      41.487617      41.487617      82.975234          16004 
    201000   3775.9249      604535.62      1260.056       603538.73      605087.01      604981.13     -1263.917      -1965.5218     -3305.6459      7810.6899      8247.241       16057.931      142410.71      41.448061      41.448061      82.896122          16004 
    202000   3771.8242      603195.98      1266.6502      603936.73      602834.62      602816.58      1426.8073     -1458.0459     -3510.4377      7802.2073      8163.7836      15965.991      142401.42      41.447159      41.447159      82.894319          16004 
    203000   3814.5292      598947.36      1273.2441      599534.34      597573.53      599734.2      -1044.8147      4135.264       1147.1464      7890.5447      8141.005       16031.55       142669.48      41.473151      41.473151      82.946301          16004 
    204000   3783.7866      602867.29      1279.8388      604778.11      602973.11      600850.66     -2813.1591     -3187.1886      1073.7731      7826.9521      8206.9484      16033.901      142486.09      41.455373      41.455373      82.910746          16004 
    205000   3795.3619      598765.27      1286.4313      596364.85      598839.99      601090.97     -1896.2739      1189.2383     -1686.1816      7850.8962      8150.9286      16001.825      142541.74      41.460769      41.460769      82.921537          16004 
    206000   3758.4461      590891.69      1293.0256      591186.57      591039.21      590449.28      1942.2101      2906.8921     -304.00943      7774.5341      7938.7618      15713.296      142851.21      41.490752      41.490752      82.981504          16004 
    207000   3816.6231      597829.55      1299.6192      597068.35      599301.15      597119.15     -921.60898      1036.01       -1655.8107      7894.8761      8103.8321      15998.708      142695.42      41.475664      41.475664      82.951328          16004 
    208000   3788.3428      603943.85      1306.2118      604554.91      606200.87      601075.77     -1587.961       2926.3328      799.02372      7836.377       8169.9924      16006.369      142464.26      41.453256      41.453256      82.906511          16004 
    209000   3831.6229      600871.93      1312.8065      598343.22      601520.42      602752.14     -5303.3129      1513.8819      282.39856      7925.9039      8185.3637      16111.268      142566.98      41.463216      41.463216      82.926432          16004 
    210000   3783.5317      595313.93      1319.4025      594192.1       594663.46      597086.23     -268.84307     -995.53759     -747.88567      7826.4249      8068.7909      15895.216      142733.99      41.479401      41.479401      82.958801          16004 
    211000   3781.049       590981.73      1325.9965      590527.43      591206.42      591211.32     -2174.5408     -1930.1605     -2344.0596      7821.2892      8154.6921      15975.981      142884.71      41.493995      41.493995      82.987991          16004 
    212000   3829.8318      605028.55      1332.5914      603198.54      605424.59      606462.53      2233.1857      32.750871     -2533.3803      7922.199       8082.4378      16004.637      142425.23      41.449469      41.449469      82.898939          16004 
    213000   3780.0443      601899.83      1339.1871      602645.29      602428.26      600625.95     -3912.3101      1552.8015      2443.8421      7819.2111      8266.0003      16085.211      142548.91      41.461465      41.461465      82.922929          16004 
    214000   3789.0161      601386.83      1345.7818      602287.62      601528.77      600344.1      -2735.8433      983.88512     -1309.8175      7837.7696      8177.5877      16015.357      142575         41.463994      41.463994      82.927987          16004 
    215000   3799.7533      598332.69      1352.3761      597709.02      599144.7       598144.35      3267.5067      3885.8759      597.48859      7859.98        8013.0657      15873.046      142568.42      41.463355      41.463355      82.926711          16004 
    216000   3793.9866      599803.17      1358.9709      599542.94      601807.49      598059.08     -1814.1276      1474.5822      1098.7312      7848.0513      8171.9195      16019.971      142580.92      41.464567      41.464567      82.929134          16004 
    217000   3827.9688      597872.59      1365.5667      597209.14      598621.47      597787.16      3034.0202      3991.9464     -1218.3327      7918.3453      8205.6062      16123.952      142664.56      41.472673      41.472673      82.945347          16004 
    218000   3806.1326      601823.56      1372.1617      603330.68      601388.03      600751.98     -2951.3419     -2539.2632     -2905.1502      7873.1759      8130.1445      16003.32       142544.37      41.461024      41.461024      82.922048          16004 
    219000   3803.2905      604760.56      1378.7571      604080.61      604844.36      605356.72      1117.7111     -537.52785      3472.9754      7867.2969      8259.0751      16126.372      142375.1       41.444606      41.444606      82.889213          16004 
    220000   3796.0364      599948.27      1385.3544      599275.14      599717.39      600852.29      1343.8404      217.30816      1791.3187      7852.2915      8127.2802      15979.572      142590.48      41.465494      41.465494      82.930989          16004 
    221000   3834.9067      592260.25      1391.9491      592731.14      591125.27      592924.33      4563.8302      2782.8953     -5356.8746      7932.6966      8152.2749      16084.971      142820.41      41.48777       41.48777       82.975541          16004 
    222000   3781.703       603258.42      1398.5431      603520.38      603884.95      602369.92     -299.96548      2635.3202      2413.8412      7822.6422      8215.7981      16038.44       142456.25      41.452479      41.452479      82.904957          16004 
    223000   3811.2054      600958.62      1405.1387      598368.95      602766.28      601740.62      1726.0266      1048.0257     -1138.7819      7883.6694      8218.3961      16102.065      142496.49      41.456381      41.456381      82.912763          16004 
    224000   3823.3898      595963.55      1411.7335      596366.19      595663.26      595861.2      -2491.9064      2722.2937     -429.11747      7908.8734      8043.3893      15952.263      142752.51      41.481194      41.481194      82.962388          16004 
    225000   3752.7831      595024.16      1418.3295      596524.9       592728.25      595819.33     -2926.7426     -276.14445      1626.2762      7762.8199      8083.9215      15846.741      142764.3       41.482336      41.482336      82.964673          16004 
    226000   3801.2433      602178.28      1424.9249      603728.29      604164.5       598642.06      2549.6937      496.12025      2180.8061      7863.0622      8160.5659      16023.628      142450.6       41.451931      41.451931      82.903862          16004 
    227000   3792.2775      600640.13      1431.5188      600554.86      600513.45      600852.07      1317.6782      5269.7521      4890.6462      7844.516       8264.2878      16108.804      142518.62      41.458528      41.458528      82.917055          16004 
    228000   3804.7504      598893.08      1438.112       596339.87      601890.4       598448.99      3347.3393     -1710.8043     -1246.51        7870.3168      8133.6122      16003.929      142593.04      41.465743      41.465743      82.931485          16004 
    229000   3852.3742      594725.05      1444.7056      593152.44      594213.04      596809.68      3921.2749      2202.1157      3804.2554      7968.829       8032.4516      16001.281      142765.16      41.482419      41.482419      82.964838          16004 
    230000   3802.5014      601398.76      1451.3004      600519.43      601655.38      602021.48     -1096.4366     -5567.1662      5367.7437      7865.6646      8149.8412      16015.506      142519.07      41.458571      41.458571      82.917143          16004 
    231000   3817.1691      603809.35      1457.8935      602894.26      603582.56      604951.24     -1942.8348     -1263.8104     -95.144096      7896.0055      8169.2272      16065.233      142471.72      41.453979      41.453979      82.907958          16004 
    232000   3819.2972      594894.9       1464.4885      593196.67      594871.86      596616.17      418.71727     -1371.77       -1029.1382      7900.4075      8067.922       15968.33       142723.66      41.4784        41.4784        82.9568            16004 
    233000   3778.9177      594076.35      1471.0814      592794.47      594956.42      594478.15      3975.5156     -4726.9539      2285.3298      7816.8805      7978.6479      15795.528      142684.55      41.47461       41.47461       82.949221          16004 
    234000   3785.505       600890.49      1477.6763      600797.43      602949.75      598924.29     -215.40576     -1112.9186      2895.3498      7830.5067      8213.9327      16044.439      142574.3       41.463926      41.463926      82.927851          16004 
    235000   3771.5613      600834.28      1484.2716      601261.34      598153.67      603087.82      43.550337     -2177.0053     -2359.1466      7801.6634      8076.9354      15878.599      142520.18      41.458678      41.458678      82.917356          16004 
    236000   3830.9079      599890.91      1490.8663      600731.53      599377.74      599563.45      2186.2344     -396.9895       3389.2223      7924.425       8129.4292      16053.854      142612.55      41.467634      41.467634      82.935267          16004 
    237000   3794.6741      595848.55      1497.4624      595721.08      595102.24      596722.35      4848.2278     -3.5903416     -463.32691      7849.4734      8142.1511      15991.625      142742.75      41.480249      41.480249      82.960498          16004 
    238000   3821.4575      606168.76      1504.0587      606179.6       606708.33      605618.35      2311.9354     -3257.483      -2184.8791      7904.8764      8256.6066      16161.483      142306.16      41.437916      41.437916      82.875831          16004 
    239000   3802.0334      604175.97      1510.6537      602546.15      605550.91      604430.85     -100.15193     -1536.6191      2467.5101      7864.6965      8231.4997      16096.196      142390.03      41.446054      41.446054      82.892108          16004 
    240000   3793.2801      594098.2       1517.2485      594808.37      591920.34      595565.89     -3904.9344      4566.2054     -1362.4448      7846.59        8100.9371      15947.527      142797.64      41.485565      41.485565      82.97113           16004 
    241000   3733.7887      597443.95      1523.8424      595577.84      598154.95      598599.05      1864.7371      837.96936      3027.0585      7723.5291      8064.1994      15787.729      142599.56      41.466374      41.466374      82.932749          16004 
    242000   3810.8724      602984.38      1530.4365      602765.29      602160.55      604027.3      -1004.4199     -112.04356     -23.742504      7882.9804      8181.0944      16064.075      142445.83      41.451468      41.451468      82.902936          16004 
    243000   3812.0623      598853.17      1537.0312      598424.33      600335.9       597799.28      2329.8843      296.54683     -708.8224       7885.4419      8103.0893      15988.531      142565.43      41.463066      41.463066      82.926131          16004 
    244000   3764.4212      592857.52      1543.6252      593829.43      591551.03      593192.09      2441.339      -292.83832     -1280.6748      7786.8938      8048.101       15834.995      142800.24      41.485817      41.485817      82.971634          16004 
    245000   3843.851       604382.84      1550.2195      606905.46      602438.85      603804.21      5082.2593     -3300.7578     -2448.2033      7951.1985      8219.2338      16170.432      142422.67      41.449221      41.449221      82.898442          16004 
    246000   3795.0028      608294.05      1556.8146      609159.16      607833.52      607889.48     -1277.8877      3085.6768     -3499.8392      7850.1534      8157.5914      16007.745      142286.04      41.435962      41.435962      82.871924          16004 
    247000   3802.7347      595828.51      1563.4086      595750.86      595939.27      595795.41     -3556.5774     -3251.4643      4366.3331      7866.1472      8090.3977      15956.545      142665.98      41.472812      41.472812      82.945623          16004 
    248000   3786.8392      595829.64      1570.0041      596324.59      595391.02      595773.31     -27.46594      -3548.7315      1006.2794      7833.2666      8098.4014      15931.668      142736.91      41.479683      41.479683      82.959366          16004 
    249000   3808.9544      602525.2       1576.5951      602840.65      603633.44      601101.5      -829.10578     -1266.0903     -611.57809      7879.0131      8207.9044      16086.917      142548.01      41.461377      41.461377      82.922754          16004 
    250000   3809.493       602851.89      1583.1912      603417.74      602725.7       602412.22      4062.51        117.07694     -2094.6568      7880.127       8069.1015      15949.228      142477.89      41.454577      41.454577      82.909155          16004 
    251000   3800.0727      602794.81      1589.7859      603388.54      601242.61      603753.29      2409.5424     -3207.7558     -2216.0324      7860.6409      8113.4175      15974.058      142551.34      41.4617        41.4617        82.9234            16004 
    252000   3811.7839      598113.37      1596.38        595189.92      598792.44      600357.74      2868.0263      3129.2346      1114.5739      7884.866       8140.6295      16025.496      142674.84      41.47367       41.47367       82.947339          16004 
    253000   3762.9626      593123.91      1602.9743      594102.95      595126.43      590142.34     -5516.4741      103.71705     -2356.5712      7783.8767      8048.964       15832.841      142795.99      41.485405      41.485405      82.97081           16004 
    254000   3815.4678      597394.06      1609.5677      597068.1       598967.09      596147         884.69548     -515.67415      3275.5877      7892.4864      8135.2609      16027.747      142713.88      41.477453      41.477453      82.954905          16004 
    255000   3771.3715      607774.56      1616.1614      609735.02      606884.51      606704.16      4552.9186      4151.1525     -3014.7876      7801.271       8247.823       16049.094      142326.92      41.43993       41.43993       82.879861          16004 
    256000   3819.1547      600531.75      1622.7541      602443.65      599465.53      599686.07     -900.75595      2573.6803     -2090.2167      7900.1129      8066.2337      15966.347      142572.98      41.463798      41.463798      82.927595          16004 
    257000   3826.2315      598086.94      1629.3475      598167.8       599513.13      596579.9       2656.3074     -4982.5756      593.00424      7914.7516      8107.0562      16021.808      142708.8       41.47696       41.47696       82.95392           16004 
    258000   3775.0909      602994.14      1635.9394      603011.02      605464.04      600507.35      1161.4802     -984.30121      450.24255      7808.9647      8068.4986      15877.463      142472.06      41.454012      41.454012      82.908023          16004 
    259000   3829.0177      610520.08      1642.5337      610049.91      611876.25      609634.07      1052.8403     -1392.7816     -940.14948      7920.5149      8256.4886      16177.003      142156.57      41.423391      41.423391      82.846783          16004 
    260000   3762.9296      596354.2       1649.1274      595445.57      595842.05      597775        -1604.129      -962.4547      -2168.8815      7783.8085      8040.7695      15824.578      142668.32      41.473038      41.473038      82.946075          16004 
    261000   3805.077       596268.2       1655.7215      594492.65      597833.31      596478.64     -669.84107     -5530.498       1223.6727      7870.9924      8079.5992      15950.592      142784.98      41.484339      41.484339      82.968678          16004 
    262000   3847.9319      600526.21      1662.3126      600864.38      600410.51      600303.73     -1525.6541     -5695.9225     -1052.9271      7959.6398      8109.5755      16069.215      142649.05      41.471171      41.471171      82.942341          16004 
    263000   3792.9565      603740.5       1668.9066      603789.52      605471.3       601960.68      255.75091     -965.98723      43.994291      7845.9205      8165.7057      16011.626      142409.64      41.447958      41.447958      82.895915          16004 
    264000   3849.197       604533.82      1675.5001      605965.7       603719.08      603916.67     -329.60876      3218.967      -1021.3159      7962.2568      8147.3995      16109.656      142469.53      41.453766      41.453766      82.907533          16004 
    265000   3828.1249      596301.25      1682.0938      596122.25      596761.1       596020.41      919.67602      2989.2907     -1869.6068      7918.6681      8090.0413      16008.709      142767.62      41.482658      41.482658      82.965317          16004 
    266000   3769.7477      596165.89      1688.6877      595813.01      597245.03      595439.64      978.81133     -2302.2226      308.53063      7797.9119      8117.8501      15915.762      142664.39      41.472658      41.472658      82.945315          16004 
    267000   3820.7272      603202.23      1695.2825      601697.79      604091.12      603817.78      1640.4063      4049.3769      717.84288      7903.3656      8156.3235      16059.689      142477.06      41.454497      41.454497      82.908995          16004 
    268000   3769.9885      602024.59      1701.8789      602511.18      600562.04      603000.54     -2456.5648     -525.65006     -654.6408       7798.4102      8149.3775      15947.788      142492.55      41.455999      41.455999      82.911998          16004 
    269000   3808.6496      594767.54      1708.4723      592845.85      595314.41      596142.37     -2730.3563     -747.92767     -2472.7247      7878.3826      8065.3895      15943.772      142776.07      41.483476      41.483476      82.966952          16004 
    270000   3781.2526      599757.02      1715.0669      597812.28      602034.7       599424.08     -4285.2355      1418.3        -182.67722      7821.7105      8076.339       15898.05       142525.3       41.459175      41.459175      82.918349          16004 
    271000   3825.0735      600040.76      1721.6628      603026.09      597818.32      599277.87     -825.48491      41.130868      1481.1748      7912.3562      8126.8789      16039.235      142503.16      41.457028      41.457028      82.914057          16004 
    272000   3787.2678      603416.52      1728.2582      603910.39      603739.44      602599.72     -2884.1668      1371.2692     -1366.9761      7834.1532      8148.466       15982.619      142464.31      41.45326       41.45326       82.906521          16004 
    273000   3786.6736      597223.29      1734.8529      596750.27      595764.72      599154.88      4602.1727      340.3713      -2152.2764      7832.9241      8055.7196      15888.644      142668.35      41.473041      41.473041      82.946081          16004 
    274000   3778.4767      598054.97      1741.4472      596531.79      599449.11      598184.01     -4547.2462     -418.26564      650.58903      7815.9683      8178.8739      15994.842      142659.9       41.472222      41.472222      82.944444          16004 
    275000   3790.4666      605427.31      1748.0422      607011.93      603701.46      605568.56      2994.0823     -287.60779      370.29651      7840.7701      8230.794       16071.564      142342.68      41.44146       41.44146       82.88292           16004 
    276000   3769.0235      603872.38      1754.6355      603368.25      606050.73      602198.15      4343.7868      1118.0837      1197.2706      7796.4139      8152.0208      15948.435      142465.25      41.453351      41.453351      82.906703          16004 
    277000   3797.6574      595875.44      1761.2302      596858.28      595979.63      594788.4       4065.8178     -1191.4918      3074.8042      7855.6445      8078.061       15933.706      142713.74      41.477439      41.477439      82.954877          16004 
    278000   3787.2245      597224.59      1767.8252      598121.92      596771.33      596780.51      645.04144      804.90205      6468.6338      7834.0635      8099.4862      15933.55       142607.47      41.467141      41.467141      82.934282          16004 
    279000   3793.682       602533.12      1774.4195      602283.45      603581.81      601734.11      5048.1135      3249.2057      824.62123      7847.4212      8219.7544      16067.176      142453.29      41.452192      41.452192      82.904383          16004 
    280000   3773.3459      601844.74      1781.0141      602531.19      601502.02      601501.02      1209.0063     -1201.2716      1948.9539      7805.3551      8107.1676      15912.523      142473.23      41.454126      41.454126      82.908252          16004 
    281000   3830.0202      597375.91      1787.6083      597563.52      597774.2       596790.01     -2312.4054      1514.2277      7124.5309      7922.5887      8111.7431      16034.332      142650.19      41.471282      41.471282      82.942563          16004 
    282000   3772.1343      598847.43      1794.2028      597930.57      598787.9       599823.83      4264.6         1665.4314     -2637.3614      7802.8488      8033.2453      15836.094      142632.41      41.469558      41.469558      82.939117          16004 
    283000   3811.6849      602843.17      1800.7982      600974.24      604354.91      603200.35      309.63382      2811.42       -8.3214776      7884.6611      8135.7124      16020.374      142483.31      41.455104      41.455104      82.910207          16004 
    284000   3781.9529      606312.72      1807.3925      607133.25      605859.5       605945.42      82.627378     -1101.9722      623.99144      7823.1591      8183.4131      16006.572      142348.05      41.441981      41.441981      82.883962          16004 
    285000   3801.38        597279.4       1813.9877      596398.1       597391.84      598048.26      1346.521       3537.1061      2267.8607      7863.3451      8041.2299      15904.575      142655.66      41.471811      41.471811      82.943622          16004 
    286000   3820.0014      598115.68      1820.5805      599169.13      597439.01      597738.89      299.49886      2966.5822      590.34794      7901.8642      8180.0218      16081.886      142726.13      41.478639      41.478639      82.957278          16004 
[...]
   3930000   3572.3616      601891.02      6974.8802      604474.56      601035.87      600162.63     -1686.0828     -2535.5179      2334.0578      7389.6089      17169.332      24558.94       140156.17      41.31446       41.31446       82.112269          16004 
   3931000   3590.6057      598335.85      6982.3096      599002.81      597727.74      598277         3297.3984     -1689.2399     -5191.3678      7427.3478      17061.806      24489.154      140340.69      41.332583      41.332583      82.148288          16004 
   3932000   3618.9419      598021.1       6989.7367      600787.6       602207.29      591068.42     -839.59758      1071.8709     -1348.1244      7485.9627      17017.523      24503.486      140301.52      41.328737      41.328737      82.140644          16004 
   3933000   3560.6704      595771.14      6997.1613      598397.88      595239.07      593676.47     -1406.8766     -119.73074      4917.3546      7365.4251      17057.858      24423.283      140515.08      41.349696      41.349696      82.1823            16004 
   3934000   3569.7354      597977.37      7004.5833      600206.88      599377.22      594347.99     -1235.895      -935.11196     -2736.2652      7384.1765      17094.199      24478.375      140366.85      41.335151      41.335151      82.153392          16004 
   3935000   3586.8695      602662.31      7012.0165      605625.99      603504.78      598856.14     -4085.7782      8264.3159      1036.0313      7419.6192      17136.673      24556.293      140157.63      41.314604      41.314604      82.112554          16004 
   3936000   3590.4034      600891.06      7019.4478      601005.67      602677.53      598989.97      810.47482     -3853.2401      852.90132      7426.9293      17112.434      24539.363      140201.49      41.318913      41.318913      82.121118          16004 
   3937000   3572.4004      593916.83      7026.8712      596110.2       594904.96      590735.34     -286.86287      4154.5353     -1183.2242      7389.6892      17075.237      24464.927      140399.57      41.338363      41.338363      82.159775          16004 
   3938000   3562.048       594955.22      7034.2987      594471.66      597653.88      592740.13      133.36347     -2080.9397     -2296.8624      7368.2748      17130.988      24499.263      140307.1       41.329285      41.329285      82.141733          16004 
   3939000   3588.5994      603694.15      7041.733       605250.87      602785.29      603046.3      -1681.6725     -788.38752     -498.69971      7423.1975      17167.436      24590.633      140062.27      41.305232      41.305232      82.093927          16004 
   3940000   3589.8762      600397.39      7049.1646      600876.6       601152.34      599163.22      2697.037      -382.45598      3744.2857      7425.8389      17118.196      24544.035      140185         41.317293      41.317293      82.117899          16004 
   3941000   3545.1211      598926.68      7056.5937      600431.5       601038.36      595310.18     -1388.352      -1211.2727     -2141.4967      7333.2606      17184.447      24517.708      140252.71      41.323944      41.323944      82.131117          16004 
   3942000   3571.5575      600583.45      7064.0214      600012.16      602477.93      599260.25     -1060.6831      2389.745       1627.2781      7387.9456      17123.457      24511.402      140266.39      41.325288      41.325288      82.133789          16004 
   3943000   3566.2018      600548.88      7071.4466      603228.38      600302.66      598115.6       232.16443      924.1475      -257.34798      7376.8672      17159.046      24535.913      140200.17      41.318783      41.318783      82.120861          16004 
   3944000   3604.7803      604381.87      7078.8695      605140.92      607430.96      600573.74      625.17942      1896.576       4082.579       7456.6687      17120.121      24576.79       140090.99      41.308055      41.308055      82.099539          16004 
   3945000   3609.366       606296.96      7086.2915      606033.12      608967.12      603890.62     -1150.8082     -1287.297      -3685.3257      7466.1545      17145.603      24611.758      139996.75      41.29879       41.29879       82.081123          16004 
   3946000   3566.2767      602025.57      7093.7154      603990.13      604302.16      597784.42     -336.301        865.06984     -2649.3798      7377.0221      17172.716      24549.738      140160.45      41.314881      41.314881      82.113105          16004 
   3947000   3547.9569      597593.06      7101.147       598587.44      601170.17      593021.55     -194.97084     -1550.6817      3941.0652      7339.1266      17152.172      24491.298      140316.04      41.330163      41.330163      82.143477          16004 
   3948000   3588.7077      599373.08      7108.575       600941.82      600552.39      596625.04      682.74478     -2112.5825      228.59723      7423.4216      17074.601      24498.023      140295.94      41.328189      41.328189      82.139554          16004 
   3949000   3575.4971      598492.39      7116.0091      604781.6       594291.44      596404.15      2786.6579      2776.1972      1809.2116      7396.0948      17097.903      24493.998      140304.84      41.329063      41.329063      82.141291          16004 
   3950000   3591.5231      600015.16      7123.4352      601328.5       600722.32      597994.65     -599.47039     -1870.0436     -1546.6752      7429.2454      17081.476      24510.721      140258.48      41.324511      41.324511      82.132245          16004 
   3951000   3599.9326      595317.56      7130.8638      599048.03      597108.22      589796.44     -376.5651       496.3022      -3633.3366      7446.641       16968.71       24415.351      140510.87      41.349283      41.349283      82.181478          16004 
   3952000   3611.6387      600070.15      7138.2897      600194.29      601647.31      598368.86     -3065.3817      910.20841      164.81134      7470.8557      16988.663      24459.519      140391.97      41.337617      41.337617      82.158292          16004 
   3953000   3609.5409      600702.35      7145.7159      602014.97      602779.19      597312.9       4197.5078     -7146.0024      2020.2661      7466.5163      17052.585      24519.101      140231.44      41.321855      41.321855      82.126965          16004 
   3954000   3631.0905      602112.73      7153.1457      600501.97      604161.2       601675.02      374.34762      6525.6214      2599.2048      7511.0926      17030.987      24542.079      140167.26      41.31555       41.31555       82.114434          16004 
   3955000   3626.6964      598459.03      7160.5716      600151.2       600724.08      594501.82      6185.316      -1.042465      -6187.1545      7502.0033      16997.743      24499.747      140277.81      41.326409      41.326409      82.136017          16004 
   3956000   3608.9747      600371.4       7168.003       598544.19      602172.4       600397.62     -1707.6971      1888.5321      968.2094       7465.3449      17047.982      24513.327      140240.2       41.322715      41.322715      82.128675          16004 
   3957000   3609.6443      603275.38      7175.4425      599676.81      609157.75      600991.59      527.72245     -2734.6586      2004.927       7466.7301      17089.25       24555.98       140124.16      41.311315      41.311315      82.106018          16004 
   3958000   3602.0972      603657.68      7182.8794      605637.27      604838.76      600497         4746.4047      502.58506     -5514.744       7451.1186      17135.153      24586.272      140042.05      41.303244      41.303244      82.089976          16004 
   3959000   3605.3972      605408.96      7190.3117      607704.01      603983.26      604539.63     -2352.6018     -4819.2258      6106.7669      7457.9447      17121.107      24579.051      140061.03      41.30511       41.30511       82.093685          16004 
   3960000   3613.232       607739.51      7197.7596      608218.52      609724.39      605275.62      1438.3218      4197.6028      2946.8957      7474.1515      17155.158      24629.309      139924.45      41.291679      41.291679      82.066992          16004 
   3961000   3583.2223      599550.66      7205.1989      599911.75      602406.02      596334.21      4040.4071     -4124.7717     -980.43555      7412.0749      17051.211      24463.286      140365.64      41.335033      41.335033      82.153156          16004 
   3962000   3570.2982      595431.61      7212.6352      596207.1       598401.91      591685.82      1407.0342      2102.4017      6456.4862      7385.3408      17036.268      24421.609      140475.31      41.345795      41.345795      82.174546          16004 
   3963000   3601.1105      601022.13      7220.0658      600499.81      598964.15      603602.43      3277.04       -1473.3834      158.13653      7449.0774      17003.185      24452.262      140391.94      41.337614      41.337614      82.158287          16004 
   3964000   3589.4039      595741.43      7227.5019      598978.12      598458.63      589787.55     -1124.2661     -1988.9394     -2887.9182      7424.8619      16995.044      24419.906      140478.3       41.346088      41.346088      82.175129          16004 
   3965000   3636.7726      593404.55      7234.9361      593730.05      594908.6       591575         2479.2113      478.40926      1871.5031      7522.8463      16841.581      24364.427      140625.69      41.360544      41.360544      82.203859          16004 
   3966000   3610.5668      598073.71      7242.3689      600261.83      599274.26      594685.04      5641.3459      3384.485       1394.9936      7468.6382      16962.834      24431.472      140445.58      41.342878      41.342878      82.168749          16004 
   3967000   3580.3507      599281.91      7249.8069      601390.18      600026.57      596428.99      321.69655     -2449.9297      360.88658      7406.1348      17082.32       24488.455      140293.42      41.327942      41.327942      82.139063          16004 
   3968000   3624.0713      602226.83      7257.2415      601154.97      604507.42      601018.09      1632.1652      3897.517       570.64125      7496.5731      17002.878      24499.451      140264.04      41.325057      41.325057      82.13333           16004 
   3969000   3617.7801      601201.39      7264.6808      603650.48      603464.48      596489.22      2792.3862     -2322.7373      2632.6815      7483.5593      17015.267      24498.827      140264.09      41.325062      41.325062      82.13334           16004 
   3970000   3602.4101      593646.93      7272.1153      597335.62      590475.84      593129.34      1781.4148     -937.83821     -1763.3893      7451.7657      16931.969      24383.735      140571.04      41.355184      41.355184      82.193208          16004 
   3971000   3586.5289      595636.89      7279.5477      596969.75      594347.56      595593.36     -914.41544      1615.2068     -1365.6671      7418.9147      16975.375      24394.29       140542.05      41.352341      41.352341      82.187557          16004 
   3972000   3591.0425      599118.77      7286.9864      600545.08      601073.46      595737.77      2733.2615     -1212.3944     -352.54128      7428.2514      17013.72       24441.971      140413.42      41.339721      41.339721      82.162475          16004 
   3973000   3607.0923      603618.21      7294.422       606555.27      603173.19      601126.18     -385.13423     -2910.0298     -383.70375      7461.4512      17053.26       24514.711      140215.16      41.320256      41.320256      82.123788          16004 
   3974000   3587.4372      607218.3       7301.8556      612667.98      605669.77      603317.17      1217.659       2576.9203      1329.4716      7420.7937      17156.726      24577.519      140046.16      41.303649      41.303649      82.090781          16004 
   3975000   3597.7431      601586.69      7309.2989      608474.07      600528.2       595757.81     -1369.1109     -3257.8021      5358.5004      7442.1119      17113.07       24555.182      140104.53      41.309386      41.309386      82.102183          16004 
   3976000   3609.3075      596390.24      7316.7361      596861.08      599859.24      592450.42     -1317.4801     -2339.5102     -3317.3892      7466.0335      16980.107      24446.141      140394.55      41.33787       41.33787       82.158795          16004 
   3977000   3564.0281      598966.58      7324.1698      597719.89      604073.19      595106.66      1932.5306     -1348.3724      1425.7561      7372.3707      17141.431      24513.802      140213.32      41.320075      41.320075      82.123428          16004 
   3978000   3583.7813      595154.75      7331.6014      596751.45      590563.48      598149.32      551.58176     -2670.9122     -3739.1664      7413.2312      17015.144      24428.375      140438.51      41.342184      41.342184      82.167369          16004 
   3979000   3596.6604      596281.36      7339.0318      593910.89      597539.41      597393.79     -8049.7071     -4800.7839      1831.443       7439.8723      16988.137      24428.009      140438.31      41.342165      41.342165      82.167331          16004 
   3980000   3574.1002      602403.35      7346.468       605991.08      606103.25      595115.72      521.46639      1740.3039      885.18901      7393.2053      17107.773      24500.979      140241.05      41.322799      41.322799      82.128842          16004 
   3981000   3604.9155      603069.56      7353.9035      606137.7       601016.81      602054.18      2166.1751     -4.0465955      899.31386      7456.9484      17045.324      24502.272      140236.55      41.322356      41.322356      82.127962          16004 
   3982000   3612.0491      605916.95      7361.3403      607686.17      605862.7       604201.97     -371.01227      1771.1462     -1248.2227      7471.7044      17038.981      24510.685      140212.97      41.32004       41.32004       82.123359          16004 
   3983000   3600.683       596915.19      7368.773       598972.94      597884.6       593888.03     -519.2314      -465.11639      3456.3812      7448.1932      16971.54       24419.733      140455.04      41.343806      41.343806      82.170594          16004 
   3984000   3608.0026      596764.97      7376.2007      598652.31      597756.8       593885.81     -724.08389     -754.40295      654.52317      7463.3341      16932.499      24395.834      140515.88      41.349775      41.349775      82.182456          16004 
   3985000   3602.4887      599442.42      7383.6315      601437.61      600971.44      595918.2       1019.8629      593.16681      25.200142      7451.9283      17012.053      24463.982      140332.47      41.331776      41.331776      82.146684          16004 
   3986000   3617.3757      603757.9       7391.0614      604743.84      606035.62      600494.22      1104.2827      1044.4292     -686.31194      7482.7228      17017.635      24500.358      140234.36      41.322142      41.322142      82.127535          16004 
   3987000   3606.2556      606233.44      7398.4988      604275.78      611727.31      602697.22      3993.7939      1952.1181      71.308435      7459.7204      17093.393      24553.114      140090.95      41.308051      41.308051      82.099531          16004 
   3988000   3561.6861      601396.62      7405.9289      603585.31      600808.3       599796.25     -1622.8196     -2681.6789     -2623.6125      7367.5262      17128.694      24496.22       140238.94      41.322592      41.322592      82.12843           16004 
   3989000   3602.3407      599472.73      7413.3687      598407.83      600780.76      599229.59     -2507.534       5470.3941      4684.4868      7451.6222      17010.788      24462.41       140327.99      41.331336      41.331336      82.145809          16004 
   3990000   3610.5616      599282.83      7420.7926      599247.29      599408.51      599192.68     -3032.0592      2457.856       557.94868      7468.6275      17018.435      24487.063      140256.74      41.324339      41.324339      82.131904          16004 
   3991000   3635.7639      596977.8       7428.2247      599264.5       599507.22      592161.67     -3123.7242      1899.3861      2047.4503      7520.7598      16904.843      24425.603      140419.46      41.340315      41.340315      82.163654          16004 
   3992000   3608.6865      596945.95      7435.6571      596781.98      599106.45      594949.43     -789.80926     -5800.8306      29.443597      7464.7487      17000.553      24465.302      140312.68      41.329833      41.329833      82.142823          16004 
   3993000   3608.1095      601693.98      7443.0793      605115.79      601745.31      598220.85     -697.20645     -1858.5221      1805.2388      7463.5554      17033.812      24497.368      140225.99      41.32132       41.32132       82.125902          16004 
   3994000   3589.6017      601728.93      7450.5127      606092.86      605602.37      593491.57      1105.3871      1130.451       78.087504      7425.271       17075.129      24500.4        140217.52      41.320488      41.320488      82.124248          16004 
   3995000   3585.7249      604683.81      7457.9404      607021.32      608306.7       598723.41      1770.1474     -80.939472     -4278.5639      7417.2515      17154.554      24571.805      140025.15      41.301582      41.301582      82.086674          16004 
   3996000   3586.2633      600994.13      7465.3703      603622         604008.51      595351.88     -1465.9937     -1841.3423     -3734.2856      7418.3654      17102.907      24521.272      140158.71      41.31471       41.31471       82.112765          16004 
   3997000   3587.1311      604649.16      7472.8001      606846.33      605766.36      601334.77     -132.10449     -1299.2277      6084.1161      7420.1605      17132.059      24552.219      140077.11      41.306691      41.306691      82.096827          16004 
   3998000   3577.4941      600774.93      7480.2211      603902.79      599062.73      599359.26      1161.2163      337.50384      556.20711      7400.2257      17103.088      24503.314      140206.58      41.319413      41.319413      82.122113          16004 
   3999000   3548.1182      595034.07      7487.6503      595767.13      593837.52      595497.57      1416.2467      1872.4471      777.42349      7339.4603      17095.824      24435.284      140388.12      41.337238      41.337238      82.15754           16004 
   4000000   3610.1875      590152.29      7495.0781      593311.62      589854.73      587290.51     -1400.1017     -1737.0992      5436.4982      7467.8537      16911.037      24378.891      140538.93      41.352035      41.352035      82.186949          16004 
Loop time of 7495.08 on 8 procs for 1000000 steps with 16004 atoms

Performance: 5.764 ns/day, 4.164 hours/ns, 133.421 timesteps/s
60.9% CPU use with 1 MPI tasks x 8 OpenMP threads

MPI task timing breakdown:
Section |  min time  |  avg time  |  max time  |%varavg| %total
---------------------------------------------------------------
Pair    | 7210.4     | 7210.4     | 7210.4     |   0.0 | 96.20
Neigh   | 12.26      | 12.26      | 12.26      |   0.0 |  0.16
Comm    | 41.801     | 41.801     | 41.801     |   0.0 |  0.56
Output  | 1.5111     | 1.5111     | 1.5111     |   0.0 |  0.02
Modify  | 203.5      | 203.5      | 203.5      |   0.0 |  2.72
Other   |            | 25.57      |            |       |  0.34

Nlocal:          16004 ave       16004 max       16004 min
Histogram: 1 0 0 0 0 0 0 0 0 0
Nghost:          14156 ave       14156 max       14156 min
Histogram: 1 0 0 0 0 0 0 0 0 0
Neighs:              0 ave           0 max           0 min
Histogram: 1 0 0 0 0 0 0 0 0 0
FullNghs:   1.6435e+06 ave  1.6435e+06 max  1.6435e+06 min
Histogram: 1 0 0 0 0 0 0 0 0 0

Total # of neighbors = 1643500
Ave neighs/atom = 102.69308
Neighbor list builds = 31811
Dangerous builds = 0
Total wall time: 7:51:23
