
atom_style atomic
units metal
boundary p p p
#atom_modify sort 0 0.0
newton on

read_data data.lammps
Reading data file ...
  orthogonal box = (0 0 0) to (43.790145 43.790145 87.58029)
  1 by 1 by 1 MPI processor grid
  reading atoms ...
  16004 atoms
  read_data CPU = 0.126 seconds
# replicate 10 10 20

### interactions

pair_style flare
pair_coeff * * lmp.flare
Reading potential file lmp.flare with DATE: Thu

# compute unc all flare/std/atom L_inv_lmp.flare sparse_desc_lmp.flare
# compute MaxUnc all reduce max c_unc

mass 1 12.011000
mass 2 28.085000

thermo_style custom step temp press cpu pxx pyy pzz pxy pxz pyz ke pe etotal vol lx ly lz atoms    #c_MaxUnc
thermo 1000
timestep 0.0005
restart 100000 restart_*.dat

#################### Equilibrate at P and T_es ##############################
velocity all create $T 41928459 rot yes dist gaussian
velocity all create 3800 41928459 rot yes dist gaussian
fix mom all momentum 1000 linear 1 1 1 angular

fix 1 all npt temp $T $T $(100.0*dt) iso $P $P $(1000.0*dt)
fix 1 all npt temp 3800 $T $(100.0*dt) iso $P $P $(1000.0*dt)
fix 1 all npt temp 3800 3800 $(100.0*dt) iso $P $P $(1000.0*dt)
fix 1 all npt temp 3800 3800 0.050000000000000002776 iso $P $P $(1000.0*dt)
fix 1 all npt temp 3800 3800 0.050000000000000002776 iso 300000 $P $(1000.0*dt)
fix 1 all npt temp 3800 3800 0.050000000000000002776 iso 300000 300000 $(1000.0*dt)
fix 1 all npt temp 3800 3800 0.050000000000000002776 iso 300000 300000 0.5
dump 1 all custom 1000 1equil.bin id type x y z vx vy vz
run   10000 # report performance
Neighbor list info ...
  update every 1 steps, delay 10 steps, check yes
  max neighbors/atom: 2000, page size: 100000
  master list distance cutoff = 6
  ghost atom cutoff = 6
  binsize = 6, bins = 8 8 15
  1 neighbor lists, perpetual/occasional/extra = 1 0 0
  (1) pair flare/kk, perpetual
      attributes: full, newton on, kokkos_device
      pair build: full/bin/kk/device
      stencil: full/bin/3d
      bin: kk/device
Per MPI rank memory allocation (min/avg/max) = 15.9 | 15.9 | 15.9 Mbytes
   Step          Temp          Press           CPU            Pxx            Pyy            Pzz            Pxy            Pxz            Pyz           KinEng         PotEng         TotEng         Volume           Lx             Ly             Lz          Atoms   
         0   3800           70189.119      0              69751.783      70235.542      70580.031     -874.11562      46.624223     -590.6524       7860.4904     -4000.2205      3860.2699      167941.93      43.790145      43.790145      87.58029           16004 
      1000   3813.8317      300796.49      6.8982116      300251.23      300979.72      301158.5       539.41372      2476.9883      1223.6766      7889.1019      5403.8066      13292.909      157049.66      42.822203      42.822203      85.644406          16004 
      2000   3826.4577      297920.8       13.773272      298724         296479.39      298559.02     -1050.393       2143.5758      969.06835      7915.2195      5439.9125      13355.132      157316.57      42.846448      42.846448      85.692896          16004 
      3000   3753.027       299718.33      20.645011      299147.96      301340.28      298666.75      200.20247      1909.6637      437.53647      7763.3245      5356.3784      13119.703      156981.7       42.816025      42.816025      85.63205           16004 
      4000   3842.5664      299041.37      27.513655      300058.3       299477.75      297588.06      1725.1674      186.94856     -291.89645      7948.5411      5455.2408      13403.782      157230.45      42.838628      42.838628      85.677256          16004 
      5000   3763.7429      302127.54      34.383506      300145.85      303590.64      302646.13     -378.42659      36.268576     -2949.02        7785.4908      5404.0228      13189.514      156882.24      42.80698       42.80698       85.613961          16004 
      6000   3821.3406      299463.24      41.274626      298738.71      301325.27      298325.73     -1713.7499      1647.4736     -3884.4495      7904.6344      5426.9974      13331.632      156952.68      42.813386      42.813386      85.626772          16004 
      7000   3784.0814      299908.79      48.172641      300376.62      300457.46      298892.28      2288.9317      794.35783      1018.7164      7827.5619      5470.8973      13298.459      157033.54      42.820737      42.820737      85.641474          16004 
      8000   3754.4217      298361.15      55.098225      297312.59      299413.9       298356.96     -437.08837      2595.8647     -1856.9832      7766.2093      5436.8776      13203.087      156978.16      42.815703      42.815703      85.631405          16004 
      9000   3824.0927      299744.6       62.02862       300666.9       297932.45      300634.46      312.44722      453.98209      1976.8273      7910.3272      5458.024       13368.351      157162.83      42.832486      42.832486      85.664972          16004 
     10000   3764.7879      303421.37      68.938879      304248.41      302555.26      303460.46      584.05632     -823.54867      2240.538       7787.6524      5408.0974      13195.75       156794.43      42.798992      42.798992      85.597984          16004 
Loop time of 68.9389 on 8 procs for 10000 steps with 16004 atoms

Performance: 6.266 ns/day, 3.830 hours/ns, 145.056 timesteps/s
65.6% CPU use with 1 MPI tasks x 8 OpenMP threads

MPI task timing breakdown:
Section |  min time  |  avg time  |  max time  |%varavg| %total
---------------------------------------------------------------
Pair    | 63.473     | 63.473     | 63.473     |   0.0 | 92.07
Neigh   | 0.14048    | 0.14048    | 0.14048    |   0.0 |  0.20
Comm    | 1.1038     | 1.1038     | 1.1038     |   0.0 |  1.60
Output  | 0.036744   | 0.036744   | 0.036744   |   0.0 |  0.05
Modify  | 3.7451     | 3.7451     | 3.7451     |   0.0 |  5.43
Other   |            | 0.4394     |            |       |  0.64

Nlocal:          16004 ave       16004 max       16004 min
Histogram: 1 0 0 0 0 0 0 0 0 0
Nghost:          13656 ave       13656 max       13656 min
Histogram: 1 0 0 0 0 0 0 0 0 0
Neighs:              0 ave           0 max           0 min
Histogram: 1 0 0 0 0 0 0 0 0 0
FullNghs:   1.4735e+06 ave  1.4735e+06 max  1.4735e+06 min
Histogram: 1 0 0 0 0 0 0 0 0 0

Total # of neighbors = 1473496
Ave neighs/atom = 92.070482
Neighbor list builds = 310
Dangerous builds = 0
run  990000
Per MPI rank memory allocation (min/avg/max) = 16.09 | 16.09 | 16.09 Mbytes
   Step          Temp          Press           CPU            Pxx            Pyy            Pzz            Pxy            Pxz            Pyz           KinEng         PotEng         TotEng         Volume           Lx             Ly             Lz          Atoms   
     10000   3764.7879      303421.37      0              304248.41      302555.26      303460.46      584.05632     -823.54867      2240.538       7787.6524      5408.0974      13195.75       156794.43      42.798992      42.798992      85.597984          16004 
     11000   3847.1663      307172.57      6.933984       307837.91      307388.33      306291.46     -392.07578      252.32799      647.02773      7958.0562      5475.686       13433.742      156738.51      42.793904      42.793904      85.587808          16004 
     12000   3839.4754      308399.4       13.859069      308542.03      308793.37      307862.79     -488.51356      665.44471     -1227.7034      7942.1472      5487.8413      13429.988      156581.77      42.779634      42.779634      85.559269          16004 
     13000   3812.2758      304243.98      20.781028      304453.96      303391.21      304886.76     -790.7372      -556.02002     -662.09461      7885.8835      5452.6764      13338.56       156775.04      42.797228      42.797228      85.594457          16004 
     14000   3798.1445      301397.51      27.709218      302303.87      301048.58      300840.09     -2331.4855     -1164.9188     -1835.23        7856.6523      5450.2273      13306.88       156977.17      42.815613      42.815613      85.631226          16004 
     15000   3815.5916      301536.79      34.622588      301046.47      301894.52      301669.37      353.48517      2196.1164     -809.80739      7892.7423      5464.7907      13357.533      157072.67      42.824294      42.824294      85.648588          16004 
     16000   3797.0695      300437.16      41.53051       299578.68      300569.81      301163.01      1069.7834     -1471.3669     -275.19316      7854.4285      5443.0963      13297.525      157012.96      42.818866      42.818866      85.637733          16004 
     17000   3800.1276      300470.75      48.455536      299846.6       300251.7       301313.94      60.001312      3048.0825     -531.83983      7860.7543      5407.4987      13268.253      157108.32      42.827534      42.827534      85.655067          16004 
     18000   3791.9825      299994.65      55.360472      301671.36      298765.4       299547.2       3413.5821     -343.81621      2141.2402      7843.9059      5407.4032      13251.309      157044.16      42.821702      42.821702      85.643405          16004 
     19000   3830.5722      297977.71      62.27281       297309.39      297279.68      299344.08     -492.10775     -816.03137      1043.5743      7923.7305      5417.4897      13341.22       157217.8       42.837479      42.837479      85.674958          16004 
     20000   3809.7336      299146.69      69.20085       297325.72      299538.53      300575.83      751.91121      1359.0519      693.9365       7880.6248      5354.1694      13234.794      157096.93      42.826499      42.826499      85.652998          16004 
     21000   3785.3948      300635.52      76.124787      301726.48      300136.58      300043.52      484.11276     -1343.4793      769.31151      7830.2789      5381.5394      13211.818      156932.21      42.811525      42.811525      85.623051          16004 
     22000   3771.316       299197.85      83.053041      301032.43      299380.61      297180.53     -78.901487     -2115.7572      1964.1126      7801.1561      5486.2592      13287.415      157118.8       42.828486      42.828486      85.656972          16004 
     23000   3787.913       301543.51      89.979762      301258.2       301041.28      302331.05     -569.8859       5476.1557      3083.1741      7835.4878      5394.6942      13230.182      156911.6       42.809651      42.809651      85.619301          16004 
     24000   3813.8787      298109.29      96.889238      298962.76      296909.47      298455.64      1626.1093     -3555.802      -4239.2698      7889.1993      5394.7443      13283.944      157071.91      42.824225      42.824225      85.64845           16004 
     25000   3834.4979      300421.86      103.82492      300992.01      299357.06      300916.51     -0.9746551      2054.0022      2019.9414      7931.851       5474.1265      13405.978      157132.31      42.829713      42.829713      85.659427          16004 
     26000   3803.5258      301167.53      110.75261      302260.23      298866.67      302375.69     -105.59527     -1682.6527     -614.42558      7867.7837      5389.9983      13257.782      156923.83      42.810763      42.810763      85.621525          16004 
     27000   3816.3843      302724.49      117.66875      304611.75      302068.28      301493.45     -669.03126      287.46143      993.47753      7894.3821      5443.4063      13337.788      156944.14      42.81261       42.81261       85.62522           16004 
     28000   3807.0282      306393.45      124.57734      306360.07      307006.46      305813.81     -1514.3056      2359.4088      1534.8707      7875.0286      5490.8655      13365.894      156697.22      42.790145      42.790145      85.580291          16004 
     29000   3785.7019      306267.24      131.48675      305867.34      305657.05      307277.32     -128.79972     -731.88962      932.41005      7830.9141      5563.6771      13394.591      156583.24      42.779768      42.779768      85.559536          16004 
     30000   3825.9393      303831.5       138.39312      302984.4       302757.78      305752.32     -1709.7558      44.253384     -80.543301      7914.1472      5441.3622      13355.509      156849.68      42.804019      42.804019      85.608038          16004 
     31000   3824.9776      301909.2       145.30442      301274.71      304412.14      300040.73     -851.08184     -460.51603      3768.5325      7912.1579      5340.6843      13252.842      156860.2       42.804975      42.804975      85.609951          16004 
     32000   3805.4187      299657.81      152.23153      300425.48      300216.66      298331.3       1251.3447      7068.9381     -445.41482      7871.6993      5455.8691      13327.568      157073.03      42.824327      42.824327      85.648653          16004 
     33000   3797.7967      297546.54      159.15984      297115.97      297034.64      298489.02     -4760.5535     -946.29605     -81.13335       7855.9327      5442.5815      13298.514      157230.73      42.838653      42.838653      85.677307          16004 
     34000   3824.2334      301038.9       166.07809      300187.05      302583.13      300346.51     -595.08288     -535.23348     -383.33175      7910.6185      5273.9289      13184.547      156932.62      42.811562      42.811562      85.623124          16004 
     35000   3776.3602      303054.4       172.992        304561.99      303051.29      301549.92      1900.4755      2575.4853      1461.8399      7811.5903      5449.7446      13261.335      156899.65      42.808564      42.808564      85.617128          16004 
     36000   3809.3755      303208.94      179.90226      306124.84      301436.24      302065.75     -2390.7786      1044.717       606.30806      7879.8841      5538.2645      13418.149      156932.36      42.811539      42.811539      85.623077          16004 
     37000   3793.56        309837.39      186.81895      309957.96      311585.91      307968.3       2112.5807     -1979.9231      1560.0216      7847.1689      5539.7647      13386.934      156500.47      42.772229      42.772229      85.544458          16004 
     38000   3781.6988      304129.13      193.73778      304759.9       303691.68      303935.82     -261.86297      3634.1395      515.85255      7822.6334      5518.854       13341.487      156800.74      42.799566      42.799566      85.599132          16004 
     39000   3797.6777      303655.08      200.64315      304244.58      303858.41      302862.24     -1346.4838      2482.4289     -80.146416      7855.6865      5403.3158      13259.002      156789.11      42.798509      42.798509      85.597017          16004 
     40000   3822.6165      301642.47      207.55304      301967.55      301390.47      301569.39      382.27347      4332.3822      3019.657       7907.2738      5401.147       13308.421      156911.06      42.809602      42.809602      85.619204          16004 
     41000   3806.8021      298863.6       214.45526      298698.94      299030.81      298861.05     -3010.3876      2267.0349     -515.36081      7874.5608      5414.8059      13289.367      157065.89      42.823678      42.823678      85.647355          16004 
     42000   3789.0633      300838.05      221.35456      298868.26      302522.86      301123.04      2809.7352     -921.27865      145.9187       7837.8673      5387.402       13225.269      157032.36      42.82063       42.82063       85.641261          16004 
     43000   3834.4808      296485.13      228.25327      296564.95      295846.55      297043.88      112.55716     -976.48374     -268.60133      7931.8157      5460.9991      13392.815      157255.12      42.840869      42.840869      85.681737          16004 
     44000   3768.198       295910.69      235.16343      295064.21      295974.99      296692.88     -1476.1127      1037.7611      1340.9925      7794.7063      5401.1528      13195.859      157264.79      42.841746      42.841746      85.683493          16004 
     45000   3812.7543      292297.73      242.06921      293144.92      291705.23      292043.05     -447.76793      1674.7665      76.099066      7886.8733      5392.1795      13279.053      157601.6       42.872309      42.872309      85.744618          16004 
     46000   3791.3696      295724.83      248.9822       297286.72      293596.58      296291.21      276.55657     -3556.1637      3540.2984      7842.638       5326.6471      13169.285      157273.91      42.842575      42.842575      85.68515           16004 
     47000   3797.3828      297469.46      255.89245      297082.94      299697.85      295627.59      367.14733     -4167.9191     -434.96629      7855.0765      5457.2365      13312.313      157225.16      42.838148      42.838148      85.676296          16004 
     48000   3773.0606      299430.66      262.80204      300519.5       297555.66      300216.8       2390.6419     -1361.4443      3287.5092      7804.7648      5414.8697      13219.635      157012.08      42.818786      42.818786      85.637573          16004 
     49000   3757.4803      297177.19      269.71219      296480.34      296766.77      298284.46      1244.7835     -1609.7333     -798.23924      7772.5363      5364.1706      13136.707      157097         42.826505      42.826505      85.653009          16004 
     50000   3804.1961      296386.87      276.62367      296907.16      295479.21      296774.23      3159.9565      402.42887      119.3523       7869.1703      5396.9667      13266.137      157239.52      42.839452      42.839452      85.678903          16004 
     51000   3796.4394      297295.51      283.53813      297037.01      298274.59      296574.91      1249.0503     -1781.7124     -3233.0706      7853.1251      5391.5394      13244.664      157181.44      42.834177      42.834177      85.668354          16004 
     52000   3808.3035      297148.69      290.45118      297579.35      296852.62      297014.11      2289.8541     -1770.6355      3978.6654      7877.6666      5416.0836      13293.75       157227.55      42.838365      42.838365      85.676729          16004 
     53000   3795.4365      298045.23      297.3652       299065.88      298575.18      296494.63      753.60872     -1057.8429      709.41782      7851.0506      5329.0446      13180.095      157078.61      42.824833      42.824833      85.649667          16004 
     54000   3816.7875      298958.51      304.2921       299612.31      299267.02      297996.2       274.83578     -457.39174      1955.1359      7895.2162      5401.828       13297.044      157055.03      42.82269       42.82269       85.645381          16004 
     55000   3788.9183      302507.56      311.24169      301345.05      300956.97      305220.65     -817.97234      2199.6819      2455.6724      7837.5672      5443.7453      13281.313      156869.97      42.805864      42.805864      85.611728          16004 
     56000   3822.1296      300224.06      318.17933      300231.7       302547         297893.49      3711.8348     -1707.5475      2056.3688      7906.2666      5469.4216      13375.688      157078.08      42.824786      42.824786      85.649572          16004 
     57000   3791.9543      299592.79      325.10352      300395.78      298675.05      299707.56     -681.47786      4516.0853      2749.7089      7843.8474      5408.0054      13251.853      156987.47      42.81655       42.81655       85.633099          16004 
     58000   3788.5358      300193.96      332.04097      301193.62      298288.55      301099.69     -2574.2576     -1052.2522      115.90085      7836.7762      5489.439       13326.215      157025.79      42.820033      42.820033      85.640065          16004 
     59000   3814.3532      305234.63      338.96501      307010.95      305577.57      303115.37     -1188.1407     -268.66654      875.29503      7890.1806      5425.9729      13316.153      156693.13      42.789774      42.789774      85.579547          16004 
     60000   3798.5181      310251.88      345.88772      309489.27      310235.08      311031.3      -2774.9993      2495.0715      1428.851       7857.4251      5504.4911      13361.916      156563.14      42.777937      42.777937      85.555874          16004 
     61000   3845.2882      304134.12      352.82606      303700.31      304788.88      303913.17     -763.15341     -1760.15       -2045.199       7954.1713      5422.0949      13376.266      156773.02      42.797045      42.797045      85.594089          16004 
     62000   3808.8957      304818.83      359.74587      306486.59      304991.49      302978.41      538.93149     -3040.2724      431.48979      7878.8916      5336.9162      13215.808      156752.42      42.79517       42.79517       85.590339          16004 
     63000   3806.8556      302957.18      366.67351      303285.74      302593.89      302991.91      946.79346     -835.30429     -1338.3014      7874.6715      5498.0194      13372.691      156889.06      42.8076        42.8076        85.615201          16004 
     64000   3834.9986      303510.81      373.61099      301304.96      303667.96      305559.51     -107.44481      1352.2847      317.62659      7932.8867      5383.7227      13316.609      156847.11      42.803786      42.803786      85.607571          16004 
     65000   3786.3319      305052.83      380.52718      304543.41      305868.84      304746.24      1398.1575     -439.33537      206.39799      7832.2171      5341.6811      13173.898      156673.08      42.787948      42.787948      85.575896          16004 
     66000   3804.5318      303261.32      387.46694      301631.1       304407.12      303745.76     -262.93801      315.79147     -1090.2635      7869.8647      5453.7045      13323.569      156946.93      42.812864      42.812864      85.625727          16004 
     67000   3812.4529      303225.25      394.39936      302033.91      303466.66      304175.18      146.38049      734.71355      2269.7234      7886.2498      5303.068       13189.318      156891.92      42.807861      42.807861      85.615721          16004 
     68000   3807.8073      298358.63      401.31359      296567.84      298548.82      299959.22     -1494.632      -1072.9645      617.65657      7876.6402      5413.2077      13289.848      157176.74      42.833749      42.833749      85.667499          16004 
     69000   3764.3455      300720.48      408.24231      299882.32      301352.27      300926.86      1049.3961     -1016.998      -1361.4669      7786.7372      5331.8554      13118.593      156928.83      42.811218      42.811218      85.622436          16004 
     70000   3793.9469      298903.24      415.15547      297038.71      299063.14      300607.85     -1502.4766     -579.76271     -2930.9757      7847.9693      5391.4894      13239.459      157086.47      42.825548      42.825548      85.651096          16004 
     71000   3808.8703      297273.57      422.05899      298254.59      296925.25      296640.87     -1636.2309     -1688.006      -862.41179      7878.8391      5439.4024      13318.242      157255.27      42.840882      42.840882      85.681764          16004 
     72000   3764.6217      298094.14      428.98713      297459.7       299320.89      297501.83     -559.10438     -1249.0926      1220.4241      7787.3087      5393.0415      13180.35       157135.93      42.830042      42.830042      85.660084          16004 
     73000   3783.1521      295721.94      435.91017      294688.88      297006.88      295470.07      371.68386      254.33545      687.60056      7825.6397      5248.3452      13073.985      157203.68      42.836197      42.836197      85.672394          16004 
     74000   3780.5962      294258.19      442.82481      295533.72      293174.55      294066.31      7.239147       1127.6588      2017.9157      7820.3527      5355.2079      13175.561      157364.77      42.850823      42.850823      85.701646          16004 
     75000   3786.5587      298182.26      449.75427      299509         298397.44      296640.36     -139.26109     -1130.7747     -1010.0002      7832.6864      5469.6209      13302.307      157175.18      42.833608      42.833608      85.667216          16004 
     76000   3774.281       301578.66      456.66974      301896.19      303529.87      299309.92      1338.2588     -990.33816     -3713.2864      7807.2893      5372.0683      13179.358      156930.13      42.811336      42.811336      85.622672          16004 
     77000   3818.2767      299705.35      463.60672      298532.06      298997.31      301586.67      1087.0219      2457.502       3553.8305      7898.2966      5474.9925      13373.289      157198.18      42.835697      42.835697      85.671395          16004 
     78000   3805.657       300688.69      470.5411       299730.74      300586.86      301748.48     -78.686548      1302.2381      37.389922      7872.1921      5372.3657      13244.558      157033.83      42.820764      42.820764      85.641527          16004 
     79000   3809.1106      297345.99      477.45818      297737.89      295557.69      298742.39     -587.37602     -3032.9535     -1537.2017      7879.3362      5410.6977      13290.034      157190.32      42.834983      42.834983      85.669966          16004 
     80000   3779.5267      297813.48      484.36269      298508.59      298492.73      296439.13      2225.6749     -48.762465     -1690.2824      7818.1404      5303.0839      13121.224      157163.37      42.832535      42.832535      85.66507           16004 
     81000   3885.5949      298376.95      491.26405      298943.77      297556.5       298630.58     -1062.6326     -1057.1115      52.74995       8037.5477      5456.5423      13494.09       157253.82      42.840751      42.840751      85.681501          16004 
     82000   3759.796       301054.07      498.16594      301902.58      301282.43      299977.2       1831.8973     -87.786919      18.716931      7777.3263      5429.8647      13207.191      156963.01      42.814325      42.814325      85.628651          16004 
     83000   3784.9624      299776.44      505.06736      299413.26      298981.64      300934.41     -1344.691       1712.8614     -842.1263       7829.3843      5280.0415      13109.426      156953.78      42.813487      42.813487      85.626974          16004 
     84000   3790.5292      298252.16      511.97016      297500.84      298505.22      298750.43     -834.98882     -1299.9068      2374.4115      7840.8996      5460.8612      13301.761      157106.78      42.827393      42.827393      85.654786          16004 
     85000   3805.3302      301055.2       518.88644      300551.77      301186.9       301426.94      254.46406     -1055.8763     -82.397315      7871.5162      5279.7417      13151.258      156947.53      42.812918      42.812918      85.625837          16004 
     86000   3818.7016      299975.68      525.78873      299188.8       299934.74      300803.51     -2478.2333     -1231.0488      1095.2467      7899.1757      5365.0458      13264.221      157038.85      42.82122       42.82122       85.64244           16004 
     87000   3839.1949      301637.96      532.68929      301794.72      301642.99      301476.18     -1364.6971      648.39147     -3758.829       7941.5669      5360.4607      13302.028      156915.05      42.809965      42.809965      85.61993           16004 
     88000   3816.525       300128.79      539.59733      301259.34      300512.17      298614.84     -2465.8433     -1355.397       1090.5635      7894.6731      5413.5156      13308.189      156921.73      42.810572      42.810572      85.621144          16004 
     89000   3807.3802      298878.46      546.50269      300117.47      298025.06      298492.84      2950.9244     -2358.1847     -1012.8516      7875.7567      5497.3438      13373.101      157075.99      42.824596      42.824596      85.649192          16004 
     90000   3778.7465      297989.65      553.41145      295061.67      300125.96      298781.31      1966.0232     -710.93573     -625.62254      7816.5265      5476.2402      13292.767      157076.37      42.82463       42.82463       85.64926           16004 
     91000   3805.5024      299506.79      560.32165      299056.8       298397.57      301066.01     -564.80106      202.75713      1054.9122      7871.8723      5393.5513      13265.424      157087.36      42.825629      42.825629      85.651258          16004 
     92000   3824.2996      298812.9       567.23594      298307.83      298887.45      299243.41     -1422.1613     -2715.071       405.7          7910.7554      5411.8693      13322.625      157174.72      42.833566      42.833566      85.667132          16004 
     93000   3806.4795      298941.85      574.15299      299775.55      296564.21      300485.78     -828.19373      1767.7322      459.36215      7873.8936      5381.5271      13255.421      157136.24      42.83007       42.83007       85.660141          16004 
     94000   3786.8836      299858.93      581.06207      299725.36      299492.56      300358.88     -570.76579     -1034.3988     -2676.6779      7833.3584      5313.7392      13147.098      157067.85      42.823856      42.823856      85.647712          16004 
     95000   3825.1553      294596.38      587.97661      294139.57      294685.7       294963.87     -2862.1598     -2391.273       2287.8289      7912.5254      5345.0494      13257.575      157294.82      42.844473      42.844473      85.688946          16004 
     96000   3784.6954      295761.28      594.89167      296738.62      296316.75      294228.46      1177.5815      1596.8122      248.18153      7828.832       5287.4097      13116.242      157183.84      42.834395      42.834395      85.66879           16004 
     97000   3785.6665      297931.53      601.80363      299080         298125.25      296589.34     -423.91062     -698.85476     -873.63132      7830.8409      5385.5831      13216.424      157100.74      42.826845      42.826845      85.65369           16004 
     98000   3801.4598      298336.36      608.72507      297452.3       298743.13      298813.64     -1397.1673      20.966751      991.97128      7863.51        5426.1935      13289.704      157085.73      42.82548       42.82548       85.650961          16004 
     99000   3835.6744      299213.39      615.65955      298584.77      300124.81      298930.59     -110.00496      73.380076     -1431.7755      7934.2847      5434.6693      13368.954      157089.52      42.825825      42.825825      85.65165           16004 
    100000   3781.9456      300449.51      622.59192      301193.76      302311.99      297842.79     -1021.8986      1164.6304      2395.3939      7823.144       5394.2115      13217.356      157000.62      42.817745      42.817745      85.63549           16004 
    101000   3843.2866      298729.47      629.50271      297594.3       300442.81      298151.31      1451.7414      2422.2556     -1049.6877      7950.0308      5337.5575      13287.588      157167.2       42.832883      42.832883      85.665766          16004 
    102000   3818.656       298179.67      636.41828      295171.9       301402.94      297964.17      2181.7013     -1426.9039     -1114.3869      7899.0813      5433.6553      13332.737      157206.47      42.83645       42.83645       85.6729            16004 
    103000   3795.317       299042.44      643.32871      300264.23      298155.01      298708.08     -2517.7765     -1943.5389      2859.1478      7850.8033      5457.6577      13308.461      157132.61      42.82974       42.82974       85.659481          16004 
    104000   3765.1303      299823.55      650.23384      300067.92      298738.19      300664.55     -646.49584      12.810302     -299.03483      7788.3606      5379.5704      13167.931      157051.58      42.822377      42.822377      85.644754          16004 
    105000   3802.9918      294025.36      657.14142      293208.98      295372.32      293494.79     -2959.9909      726.42891     -2871.6426      7866.679       5420.0818      13286.761      157395.34      42.853598      42.853598      85.707196          16004 
    106000   3774.6393      297331.01      664.05603      297319.31      296449.97      298223.74      2119.712      -318.64753      16.111898      7808.0306      5321.4676      13129.498      157178.47      42.833906      42.833906      85.667813          16004 
    107000   3793.368       295045.2       670.9822       295768.99      294277.82      295088.8      -3121.3345     -237.7246      -1320.9028      7846.7717      5342.5557      13189.327      157212.61      42.837008      42.837008      85.674015          16004 
    108000   3861.114       295677.24      677.91828      295474.08      295987.22      295570.42     -409.45953      463.29711      1844.7725      7986.9078      5395.6929      13382.601      157388.41      42.852969      42.852969      85.705938          16004 
    109000   3796.3299      298472.95      684.84162      298777.84      297740.49      298900.52      43.554604     -1004.8385     -2114.6651      7852.8986      5392.9263      13245.825      157100.09      42.826786      42.826786      85.653572          16004 
    110000   3767.8001      298797.7       691.77394      299343.36      298825.55      298224.18      299.18877      698.87692     -523.88418      7793.8832      5473.2357      13267.119      156998.9       42.817589      42.817589      85.635177          16004 
    111000   3753.3271      299643.63      698.70512      300159.14      298284.07      300487.67      1673.3839     -3049.4139     -1697.8686      7763.9451      5441.932       13205.877      156914.93      42.809954      42.809954      85.619907          16004 
    112000   3790.5203      302845.23      705.62607      302404.38      302729.43      303401.89      924.82029      2093.485      -1800.7447      7840.8811      5445.6206      13286.502      156828.46      42.802089      42.802089      85.604178          16004 
    113000   3826.3923      302134.44      712.55439      302727.95      302561.78      301113.59     -1306.6612      627.40747     -427.61221      7915.0842      5471.5472      13386.631      156862.96      42.805227      42.805227      85.610455          16004 
    114000   3831.4721      305235.2       719.48577      305033.21      304881.99      305790.4       278.5277      -1754.5886      1773.4007      7925.592       5480.9962      13406.588      156777.09      42.797415      42.797415      85.59483           16004 
    115000   3781.8343      304751.24      726.40438      306665.48      304146.75      303441.5      -769.59252     -2637.006      -2011.4511      7822.9138      5449.724       13272.638      156815.55      42.800914      42.800914      85.601829          16004 
    116000   3802.442       304369.37      733.33888      304169.89      305289.27      303648.93     -2287.7354     -519.35704     -387.17785      7865.5418      5368.7142      13234.256      156757.18      42.795603      42.795603      85.591205          16004 
    117000   3830.8513      303643.1       740.26907      303083.96      302580.55      305264.78      264.70715      1909.5335      2250.4305      7924.3078      5445.5158      13369.824      156851.92      42.804223      42.804223      85.608445          16004 
    118000   3812.4962      305896.63      747.19172      306268.57      304409.97      307011.34     -142.20483      1356.7822      1162.7381      7886.3394      5438.4473      13324.787      156644.59      42.785355      42.785355      85.570709          16004 
    119000   3850.321       303842.76      754.12478      302642.44      305619.25      303266.59     -527.10591      388.24013     -625.80123      7964.5818      5430.015       13394.597      156824.09      42.801691      42.801691      85.603382          16004 
    120000   3804.6238      305606.29      761.05327      304990.83      304929.43      306898.61      546.6245       562.88014      2893.529       7870.055       5445.9074      13315.962      156679.75      42.788555      42.788555      85.57711           16004 
    121000   3870.2887      300476.03      767.99085      299322.81      301452.95      300652.31     -164.2998       2101.8398     -640.73456      8005.8861      5386.9843      13392.87       157018.05      42.81933       42.81933       85.638659          16004 
    122000   3816.334       302197.85      774.93241      303949.41      301637.48      301006.67      1402.3373     -401.79553      2691.7685      7894.278       5408.7001      13302.978      156840.9       42.80322       42.80322       85.60644           16004 
    123000   3783.3335      304976.3       781.85935      305777.1       303997.66      305154.14      1249.3678      137.36203      5397.0938      7826.015       5379.7585      13205.773      156687.36      42.789249      42.789249      85.578497          16004 
    124000   3792.4517      301275.58      788.79235      303067.23      298637.39      302122.14      2254.3472      348.77455      2740.5374      7844.8764      5490.9193      13335.796      156929.78      42.811304      42.811304      85.622608          16004 
    125000   3817.933       302883.31      795.73066      300712.58      303171.01      304766.35     -1542.5561      572.31985     -705.73494      7897.5857      5420.3831      13317.969      156914.5       42.809914      42.809914      85.619828          16004 
    126000   3813.5381      302415.56      802.65379      301840.14      302952.23      302454.32      1023.7883      438.39607     -690.23377      7888.4946      5384.4279      13272.922      156836.39      42.80281       42.80281       85.60562           16004 
    127000   3817.5404      302921.31      809.59106      303475.24      302011.06      303277.62      1348.9911      3118.1139     -1832.8821      7896.7736      5394.7563      13291.53       156902.46      42.80882       42.80882       85.617639          16004 
    128000   3782.3758      302248.56      816.5262       301209.73      301707.42      303828.54      2055.897      -256.63549     -2304.0618      7824.0338      5460.0207      13284.054      156911.19      42.809614      42.809614      85.619228          16004 
    129000   3799.9907      303786.04      823.44784      304186.11      303563.79      303608.21      1906.3456     -820.70247     -154.2389       7860.4711      5365.1071      13225.578      156842.07      42.803327      42.803327      85.606653          16004 
    130000   3817.2242      301604.76      830.38991      301124.4       303256.17      300433.72     -1991.87       -289.68681     -461.03377      7896.1196      5383.1822      13279.302      156874.48      42.806275      42.806275      85.61255           16004 
    131000   3806.2941      301723.83      837.32078      303579.85      299757.96      301833.67     -4876.3654     -136.64563     -1789.3147      7873.51        5425.2556      13298.766      156919.89      42.810405      42.810405      85.62081           16004 
    132000   3822.2962      300218.1       844.24184      299299.15      300139.84      301215.3      -1039.391      -42.484038      862.30626      7906.6113      5374.692       13281.303      156965.87      42.814585      42.814585      85.629171          16004 
    133000   3845.7666      298162.76      851.15073      297643.57      296688.28      300156.43      2101.0109      718.10196      884.47101      7955.1608      5430.4083      13385.569      157200.27      42.835887      42.835887      85.671774          16004 
    134000   3790.9664      296804.14      858.0597       296216.88      298050.7       296144.85     -1619.6349      448.07206     -168.90251      7841.8039      5390.2922      13232.096      157223.6       42.838006      42.838006      85.676011          16004 
    135000   3795.1371      293259.96      864.96899      293414.09      292056.18      294309.61     -514.96776      1883.6544      108.05059      7850.4312      5275.243       13125.674      157261.64      42.84146       42.84146       85.682921          16004 
    136000   3822.3349      297964.39      871.88386      297452.45      297843.56      298597.16      273.71141     -641.3606      -797.12129      7906.6913      5343.2941      13249.985      157250.29      42.84043       42.84043       85.680859          16004 
    137000   3772.7968      297064.92      878.80424      296096.04      298002.87      297095.84     -307.42507     -1982.8721      1599.382       7804.2191      5374.453       13178.672      157186.01      42.834592      42.834592      85.669183          16004 
    138000   3797.1646      300577.11      885.72822      302495.41      299799.14      299436.77      3871.5         226.7348       277.34959      7854.6252      5372.7877      13227.413      157050.95      42.82232       42.82232       85.64464           16004 
    139000   3783.6506      301800.59      892.64217      302701.29      301136.21      301564.25      2443.795       1973.8802     -1575.1012      7826.6709      5520.256       13346.927      156932.58      42.811558      42.811558      85.623117          16004 
    140000   3825.696       307880.07      899.55674      307862.5       309127.69      306650.01     -33.367418      111.65543     -3734.0306      7913.6438      5597.5296      13511.173      156713.09      42.79159       42.79159       85.58318           16004 
    141000   3835.2424      306395.76      906.47204      306814.16      305971.48      306401.63      795.06744     -1077.8369     -4514.9321      7933.3911      5423.6526      13357.044      156704.36      42.790795      42.790795      85.581591          16004 
    142000   3833.7629      301827.49      913.38515      300673.78      303377.39      301431.31     -2173.4528      1123.6792     -3375.4345      7930.3305      5531.8604      13462.191      156982.76      42.816121      42.816121      85.632242          16004 
    143000   3796.1057      300552.22      920.3133       301854.16      299048.24      300754.27      3519.3569     -1373.7994      1312.3053      7852.4349      5419.599       13272.034      156940.07      42.81224       42.81224       85.624479          16004 
    144000   3794.6167      300191.88      927.24237      301439.52      299677.33      299458.78      134.35879     -2690.408       778.82995      7849.3548      5386.4272      13235.782      157040.48      42.821369      42.821369      85.642737          16004 
    145000   3769.4302      299207.01      934.16425      298946.89      299484.36      299189.77     -654.23855      1082.9767      688.51691      7797.2552      5359.2969      13156.552      156962.08      42.814241      42.814241      85.628482          16004 
    146000   3793.9282      301026.68      941.07885      302524.85      299506.38      301048.82     -2814.5127     -1442.7015      398.49057      7847.9305      5390.961       13238.892      156872.9       42.806131      42.806131      85.612261          16004 
    147000   3829.0835      300394.63      947.99013      301186.83      300348.63      299648.42      1434.1772     -702.2079      -2441.2341      7920.651       5446.4885      13367.139      157004.24      42.818074      42.818074      85.636147          16004 
    148000   3788.6127      302590.46      954.89801      302723.5       302217.07      302830.81     -601.50807     -1128.7759      904.60521      7836.9352      5384.6756      13221.611      156901.85      42.808764      42.808764      85.617528          16004 
    149000   3808.9844      299917.66      961.81061      299128.27      301839.28      298785.44      755.31556     -3099.0015     -2957.9264      7879.0751      5451.1085      13330.184      157043.66      42.821657      42.821657      85.643314          16004 
    150000   3806.4671      302284.16      968.72103      301743.79      302126.75      302981.96     -793.69744      1639.7379     -624.26129      7873.868       5389.4674      13263.335      156908.51      42.809369      42.809369      85.618739          16004 
    151000   3849.1224      302246.26      975.6356       301504.02      301480.15      303754.6       1295.05       -3154.7038      2780.8896      7962.1025      5414.8813      13376.984      156933.74      42.811664      42.811664      85.623329          16004 
    152000   3792.2985      303014.43      982.54974      300389.07      303454.3       305199.92     -1881.6172      2365.4105     -622.1086       7844.5594      5504.2744      13348.834      156902.4       42.808814      42.808814      85.617628          16004 
    153000   3830.9491      301816.17      989.45704      302845.35      302104.47      300498.68     -2091.6061      1880.6107     -847.50173      7924.5102      5487.6364      13412.147      156970.82      42.815036      42.815036      85.630071          16004 
    154000   3804.4863      303492.06      996.36661      303938.12      302496.66      304041.42     -901.91337     -3037.536       2043.0135      7869.7705      5471.593       13341.364      156877.08      42.806511      42.806511      85.613023          16004 
    155000   3828.0863      304053.43      1003.2804      304316.58      303698.3       304145.41     -575.01973     -1680.9198     -843.77455      7918.5882      5576.0148      13494.603      156896.93      42.808316      42.808316      85.616633          16004 
    156000   3818.4422      301306.12      1010.1933      301340.56      301098.17      301479.63     -414.18426      618.88021     -924.8193       7898.6389      5294.1392      13192.778      156871.89      42.806039      42.806039      85.612078          16004 
    157000   3782.4117      299839.06      1017.1078      300491.28      299602.4       299423.49     -329.75849      2838.6758     -1764.0586      7824.1081      5481.7317      13305.84       157196.88      42.835579      42.835579      85.671158          16004 
    158000   3789.9751      297718.24      1024.0289      297908.91      297060.02      298185.78     -2291.0919     -188.94776     -485.0111       7839.7533      5367.7793      13207.533      157112.95      42.827954      42.827954      85.655908          16004 
    159000   3813.5951      300551.15      1030.9509      299618.52      303032.27      299002.65      2220.0847     -1530.9117      1085.7948      7888.6126      5395.3089      13283.922      157028.61      42.820289      42.820289      85.640578          16004 
    160000   3815.3017      301023.55      1037.8887      301571.09      301619.81      299879.76     -1121.4245      2926.8494     -1022.0179      7892.1428      5352.6099      13244.753      156994.9       42.817225      42.817225      85.634451          16004 
    161000   3858.4853      299253.31      1044.8214      300977.73      299147.63      297634.58      1417.6007     -491.27088     -962.37462      7981.4701      5483.0566      13464.527      157182.21      42.834247      42.834247      85.668493          16004 
    162000   3801.1941      300224.65      1051.7444      300351.01      299486.45      300836.48     -665.81025     -729.26199      2544.2175      7862.9605      5412.837       13275.797      157054.44      42.822637      42.822637      85.645273          16004 
    163000   3781.8421      302305.52      1058.6802      300471.04      302326.65      304118.88      2537.2844     -670.76021      191.46735      7822.9299      5486.7161      13309.646      156951.51      42.81328       42.81328       85.626561          16004 
    164000   3856.6903      303017.74      1065.6063      303035.1       302061.51      303956.62     -3205.9464     -152.9065      -1651.5682      7977.7571      5463.6588      13441.416      156965.68      42.814569      42.814569      85.629137          16004 
    165000   3782.3548      300001.81      1072.5391      298853.06      301498.06      299654.31     -453.40152     -1231.0239     -64.684764      7823.9904      5392.5567      13216.547      156878.66      42.806655      42.806655      85.61331           16004 
    166000   3829.9888      301684.78      1079.4892      301797.81      302499.67      300756.87      823.2274       1475.1072      846.14728      7922.5236      5426.447       13348.971      157023.17      42.819795      42.819795      85.63959           16004 
    167000   3769.5761      300728.37      1086.4192      299834.15      299586.33      302764.63      488.7822       2395.8357     -4444.4515      7797.557       5391.8877      13189.445      156947.14      42.812882      42.812882      85.625765          16004 
    168000   3819.3182      302054.8       1093.35        302739.97      302460.8       300963.63      4172.0452      2248.775       970.84447      7900.4511      5408.1457      13308.597      156957.13      42.813791      42.813791      85.627582          16004 
    169000   3771.9301      302529.74      1100.289       301622.59      302449.56      303517.07     -3399.1189      1613.3853     -2834.5021      7802.4263      5472.2834      13274.71       156921.63      42.810563      42.810563      85.621126          16004 
    170000   3834.0116      301766.17      1107.2142      302037.74      301047.77      302212.99     -281.35163      242.55308      2431.3871      7930.8451      5470.0842      13400.929      157015.69      42.819115      42.819115      85.638229          16004 
    171000   3802.199       302547.15      1114.151       301790.16      303499.42      302351.87      4860.4991     -13.197912     -1806.2651      7865.0392      5397.4352      13262.474      156907.99      42.809323      42.809323      85.618645          16004 
    172000   3800.8991      299533.61      1121.0926      298630.12      300629.5       299341.23      1078.9992     -2571.9482      1183.1605      7862.3502      5506.6859      13369.036      157138.79      42.830302      42.830302      85.660604          16004 
    173000   3831.4436      300448.37      1128.012       301043.54      300602.61      299698.97     -661.2091       627.95255     -3855.9199      7925.5331      5315.636       13241.169      156985.5       42.816371      42.816371      85.632741          16004 
    174000   3854.6695      297927.68      1134.9464      297824.21      298744.39      297214.46     -2416.846      -253.59828     -646.38406      7973.5771      5324.5566      13298.134      157162.4       42.832447      42.832447      85.664895          16004 
    175000   3769.5087      299341.26      1141.875       298652.42      298925.18      300446.17     -2511.3462     -621.51942      107.0968       7797.4177      5340.7846      13138.202      156980.69      42.815933      42.815933      85.631866          16004 
    176000   3853.2486      297669.78      1148.7979      296834.03      297794.82      298380.5       555.95677      3793.9107     -3044.6211      7970.6377      5343.1379      13313.776      157175.6       42.833646      42.833646      85.667291          16004 
    177000   3809.8015      298450.69      1155.7342      300421.74      296801.59      298128.75     -2476.3661     -2473.4893     -1644.0324      7880.7653      5363.7536      13244.519      157100.6       42.826832      42.826832      85.653663          16004 
    178000   3773.728       297707.02      1162.6647      296961.16      298516.59      297643.3      -248.20282      335.06642      2260.5216      7806.1453      5330.2394      13136.385      157095.77      42.826393      42.826393      85.652786          16004 
    179000   3812.7445      298364.61      1169.585       296741.3       298106.92      300245.6       3363.7169      420.60747     -51.165224      7886.853       5385.5355      13272.388      157218.56      42.837548      42.837548      85.675096          16004 
    180000   3814.6004      295243.2       1176.5199      294530.18      296488.55      294710.85      3351.8878     -1453.3583     -3097.3439      7890.692       5249.5958      13140.288      157163.78      42.832572      42.832572      85.665144          16004 
    181000   3777.7947      297157.37      1183.4446      298773.52      297256.5       295442.09     -1675.4155      981.20871     -1943.6404      7814.5577      5419.492       13234.05       157143.15      42.830698      42.830698      85.661396          16004 
    182000   3839.8206      298095.39      1190.3721      298523.66      298695.95      297066.55     -2641.8093     -963.68453      833.14947      7942.8612      5310.7343      13253.596      157124.55      42.829008      42.829008      85.658017          16004 
    183000   3796.7599      298356.22      1197.3095      299157.94      295924.75      299985.97     -404.35521     -1144.8368      916.48204      7853.7882      5333.0109      13186.799      157099.65      42.826745      42.826745      85.653491          16004 
    184000   3774.2659      299208.75      1204.2398      297543.85      299669.57      300412.83      2879.2198     -1226.2148     -1599.7629      7807.2581      5469.4025      13276.661      157138.02      42.830232      42.830232      85.660465          16004 
    185000   3789.6306      300794.54      1211.1566      299472.51      302491.84      300419.29      945.48333      1227.9476     -4450.2544      7839.0408      5364.0779      13203.119      156936.25      42.811893      42.811893      85.623785          16004 
    186000   3788.6459      302177.59      1218.0674      302656.33      300029.63      303846.82     -75.100504      1379.8732     -1628.819       7837.004       5447.3294      13284.333      156920.27      42.810439      42.810439      85.620878          16004 
    187000   3804.4286      300061.99      1224.9854      299277.86      301393.69      299514.41      292.01147      457.8224      -2401.1338      7869.6511      5364.3296      13233.981      156993.78      42.817123      42.817123      85.634246          16004 
    188000   3795.631       300410.77      1231.9089      300783.46      301882.95      298565.91     -1012.6765      198.79278     -1281.0024      7851.4529      5396.1589      13247.612      157006.95      42.818321      42.818321      85.636641          16004 
    189000   3777.7629      299178.47      1238.8278      299160         301213.97      297161.43      2154.7662      1515.4811      2809.5759      7814.4918      5489.3845      13303.876      157097.91      42.826588      42.826588      85.653176          16004 
    190000   3790.8644      301149.96      1245.746       300934.15      303386.71      299129.04      456.80001      1378.0718     -1742.2567      7841.5929      5362.5985      13204.191      156888.18      42.807521      42.807521      85.615042          16004 
    191000   3812.2128      301881.34      1252.661       302328.06      302022.62      301293.33      1285.3218     -3682.3568     -592.35866      7885.7531      5376.9601      13262.713      156926.63      42.811017      42.811017      85.622035          16004 
    192000   3800.1303      301390.38      1259.5705      302784.21      300834.22      300552.69     -2577.0747      2673.6929     -571.54814      7860.76        5364.4717      13225.232      156966.28      42.814623      42.814623      85.629246          16004 
    193000   3793.2644      299016.69      1266.479       296641.91      298840.46      301567.71      947.08766      2443.0737      2154.6085      7846.5574      5432.376       13278.933      157159.51      42.832185      42.832185      85.664369          16004 
    194000   3781.6452      299358.44      1273.3862      300607.03      300418.47      297049.82      684.11915      1070.2109      702.4448       7822.5226      5437.8435      13260.366      157069.55      42.824011      42.824011      85.648021          16004 
    195000   3802.9         301301.77      1280.3005      300833.05      302858.1       300214.15     -292.03925      55.413456      1375.1082      7866.4892      5415.9191      13282.408      156916.52      42.810098      42.810098      85.620197          16004 
    196000   3776.5184      305904.65      1287.2124      307809.14      304219.04      305685.77     -243.40502     -922.76467     -1351.2924      7811.9176      5451.1069      13263.024      156706.46      42.790987      42.790987      85.581973          16004 
    197000   3821.7249      302454.82      1294.1323      302194.74      303132.26      302037.47      1300.1097     -359.75788      325.37128      7905.4295      5402.7169      13308.146      156883.79      42.807121      42.807121      85.614243          16004 
    198000   3812.8596      302388.98      1301.0511      302545.69      301896.77      302724.49      1028.7661     -650.27674     -3389.7249      7887.091       5356.2548      13243.346      156857.01      42.804685      42.804685      85.609371          16004 
    199000   3788.9454      301550.52      1307.9606      301469.63      302594.81      300587.12      658.23035     -543.79449      3051.8708      7837.6233      5377.6877      13215.311      156845.71      42.803657      42.803657      85.607315          16004 
    200000   3798.4778      300121.72      1314.8804      299168.89      300211.5       300984.78      213.78406      1346.7384     -1442.9789      7857.3415      5439.9196      13297.261      156951.12      42.813244      42.813244      85.626488          16004 
    201000   3817.7117      302192.63      1321.7875      300935.41      301379.27      304263.21      598.38923     -2163.5272      915.7722       7897.128       5423.3963      13320.524      156908.08      42.809331      42.809331      85.618662          16004 
    202000   3792.6815      303002.13      1328.6939      303441.59      303295.39      302269.39      1255.711      -246.48349     -1480.2493      7845.3517      5407.9908      13253.342      156868.94      42.805771      42.805771      85.611542          16004 
    203000   3823.9368      300666.14      1335.6076      301041.18      299858.2       301099.03     -2269.8388     -260.5308       412.27285      7910.0049      5423.9554      13333.96       157057.16      42.822884      42.822884      85.645768          16004 
    204000   3804.8643      299192.8       1342.5259      298296.8       299664.44      299617.15      2971.977      -951.40681      2405.4465      7870.5524      5386.6217      13257.174      157052.58      42.822468      42.822468      85.644936          16004 
    205000   3784.1736      297196.87      1349.4417      296811.1       296655.8       298123.71     -2502.3051     -666.51826      1879.1919      7827.7527      5429.0151      13256.768      157099.57      42.826738      42.826738      85.653476          16004 
    206000   3818.6291      299970.66      1356.3544      298259.03      301012.05      300640.91      745.8669      -1373.5584     -711.4184       7899.0255      5358.8969      13257.922      157036.4       42.820997      42.820997      85.641994          16004 
    207000   3795.9647      297668.9       1363.2701      298505.69      296723.2       297777.83     -310.34181     -161.15635     -312.86789      7852.1433      5438.5795      13290.723      157254.43      42.840806      42.840806      85.681612          16004 
    208000   3799.3074      298678.91      1370.1839      299381.48      297678.58      298976.68     -439.09309     -3037.8318     -2717.1588      7859.0577      5389.6719      13248.73       157093.02      42.826143      42.826143      85.652286          16004 
    209000   3815.7518      299100.21      1377.1008      298481.9       299576.08      299242.65     -507.66794     -699.36793      1831.2068      7893.0737      5292.5827      13185.656      157058.43      42.822999      42.822999      85.645999          16004 
    210000   3792.033       298782.32      1384.0312      299811.12      296753.2       299782.64     -618.14528     -142.35644      2328.8476      7844.0103      5359.0505      13203.061      157041.27      42.82144       42.82144       85.64288           16004 
    211000   3776.8459      299279.55      1390.9614      299173.35      298204.32      300460.99      4009.7921     -1818.1299     -2175.8046      7812.595       5437.9831      13250.578      157012.11      42.818789      42.818789      85.637578          16004 
    212000   3767.946       298684.59      1397.8886      299717.24      299398.29      296938.24      749.22015      303.81074      2155.5182      7794.1852      5374.1191      13168.304      156954.78      42.813577      42.813577      85.627154          16004 
    213000   3808.1717      297788.2       1404.8334      297940.97      298548.81      296874.82      28.775054      468.41852      437.81833      7877.3939      5368.5349      13245.929      157103.72      42.827116      42.827116      85.654232          16004 
    214000   3851.2678      299068.95      1411.7657      299404.8       299652.69      298149.35      2781.4875     -924.41517      880.4765       7966.5403      5422.1401      13388.68       157142.05      42.830598      42.830598      85.661196          16004 
    215000   3789.9177      298864.21      1418.6883      298206.81      298879.53      299506.28     -3192.5405      3094.1365      1013.8067      7839.6346      5393.9009      13233.535      157011.64      42.818747      42.818747      85.637494          16004 
    216000   3863.0789      297391.4       1425.6308      296702.86      297789.3       297682.03      3408.3859      814.72761     -1336.2922      7990.9722      5394.1861      13385.158      157147.74      42.831115      42.831115      85.662231          16004 
    217000   3799.3775      300573.62      1432.5587      301381.92      301533.61      298805.34      2879.459      -1123.5718      283.67706      7859.2027      5368.7358      13227.939      156914.13      42.809881      42.809881      85.619762          16004 
    218000   3821.3531      299283.27      1439.4841      299595.65      299286.69      298967.46     -1443.5397     -711.88498     -706.92663      7904.6604      5442.9058      13347.566      157055.02      42.82269       42.82269       85.64538           16004 
    219000   3763.6592      305044.11      1446.4286      304447.06      306273.94      304411.31      2294.0116      1200.2667     -777.60508      7785.3176      5485.9134      13271.231      156833         42.802502      42.802502      85.605003          16004 
    220000   3784.0219      302867.56      1453.3509      304632.46      300679.78      303290.45     -81.121056      1104.9612      2144.2548      7827.4389      5470.9765      13298.415      156853.44      42.804361      42.804361      85.608723          16004 
    221000   3772.9005      303999.27      1460.2888      303366         305299.97      303331.83      518.83219      417.14292      153.78957      7804.4336      5460.6824      13265.116      156848.66      42.803926      42.803926      85.607853          16004 
    222000   3795.3882      304191.57      1467.2222      305538.96      303661.27      303374.48     -1107.3824      990.29825     -3390.4319      7850.9506      5446.2146      13297.165      156748.57      42.794819      42.794819      85.589638          16004 
    223000   3827.1161      304770.47      1474.141       303680.91      305355.06      305275.44     -320.82572     -845.50893      1811.4414      7916.5814      5429.1998      13345.781      156805.38      42.799989      42.799989      85.599977          16004 
    224000   3819.6285      303254.73      1481.076       304905.07      302475.37      302383.76     -895.04176     -2054.5442     -2172.398       7901.093       5411.8769      13312.97       156834.01      42.802593      42.802593      85.605187          16004 
    225000   3853.1344      303208.79      1488.0079      302915.27      303503.11      303208        -893.74436      1407.5434      358.2431       7970.4016      5413.3034      13383.705      156933.43      42.811636      42.811636      85.623271          16004 
    226000   3783.7602      303541.71      1494.9275      304446.11      302380.75      303798.26      917.27585     -3471.8199      97.92894       7826.8976      5407.9095      13234.807      156766.02      42.796407      42.796407      85.592814          16004 
    227000   3838.7138      302397.19      1501.8652      303117.89      302986.42      301087.25      625.8846      -456.48509      1208.0495      7940.5717      5480.502       13421.074      156906.71      42.809206      42.809206      85.618413          16004 
    228000   3806.8965      303585.17      1508.7998      304463.77      303663.12      302628.61     -3765.8389     -1097.6906      3229.0976      7874.7561      5484.8844      13359.64       156813.13      42.800694      42.800694      85.601388          16004 
    229000   3833.4533      307222.9       1515.732       308181.82      304809.86      308677.04     -822.66352      1582.0448     -1730.1872      7929.6903      5512.6083      13442.299      156663.57      42.787083      42.787083      85.574165          16004 
    230000   3829.2818      302169.07      1522.6776      299805.61      303017.13      303684.46      1382.1592     -995.61107      102.80153      7921.0612      5396.2621      13317.323      156828.25      42.802069      42.802069      85.604139          16004 
    231000   3771.6104      302875.37      1529.6023      303568.52      301382.66      303674.94     -933.10387     -1581.3285      2849.8526      7801.7652      5385.8087      13187.574      156798.99      42.799407      42.799407      85.598815          16004 
    232000   3803.4188      301646.3       1536.5282      300899.45      302876.63      301162.8       887.0916       864.85233     -2790.3473      7867.5624      5404.8001      13272.362      156968.22      42.814799      42.814799      85.629599          16004 
    233000   3824.9764      298638.86      1543.4662      300419.81      297179.48      298317.29      1141.069       2188.4463     -1052.9568      7912.1554      5442.1466      13354.302      157089.93      42.825862      42.825862      85.651725          16004 
    234000   3805.412       294746.2       1550.3889      293726.25      295949.36      294563        -2330.0841      1953.3042     -2445.0347      7871.6855      5356.0311      13227.717      157337.76      42.848371      42.848371      85.696743          16004 
    235000   3807.4716      292939.03      1557.3201      291461.39      293729.48      293626.23      1135.3533      351.32574      2198.4527      7875.9457      5281.7137      13157.659      157311.77      42.846013      42.846013      85.692025          16004 
    236000   3788.256       294285.29      1564.2573      294372.89      294976.34      293506.65     -1318.9356      1782.0447     -36.123424      7836.1974      5451.6197      13287.817      157310.78      42.845922      42.845922      85.691845          16004 
    237000   3793.6624      296956.69      1571.1707      297017.43      297368.66      296483.98     -1197.0893      3631.6892      2021.1455      7847.3808      5396.7459      13244.127      157133.32      42.829805      42.829805      85.65961           16004 
    238000   3807.1488      297982.07      1578.0742      296864.17      298867         298215.05     -1266.4324     -679.2149       202.4215       7875.2781      5467.4351      13342.713      157244.15      42.839872      42.839872      85.679745          16004 
    239000   3791.4548      298909.6       1584.9771      299285.3       298113.54      299329.97     -1165.4723     -583.33485      262.33266      7842.8143      5366.6603      13209.475      157023.8       42.819852      42.819852      85.639704          16004 
    240000   3754.3191      296504.7       1591.8804      296089.51      296393.46      297031.12     -1138.4274     -1040.048       823.222        7765.9971      5355.3485      13121.346      157166.99      42.832863      42.832863      85.665727          16004 
    241000   3801.7717      292187.92      1598.7835      292738.52      292249.59      291575.65     -365.1044      -401.24191      778.35874      7864.1552      5348.7585      13212.914      157455.12      42.859022      42.859022      85.718045          16004 
    242000   3772.1498      298889.67      1605.6917      298453.67      299593.66      298621.69     -2447.6686     -708.47451      879.97519      7802.8809      5328.5747      13131.456      157046.44      42.82191       42.82191       85.64382           16004 
    243000   3797.4139      301017.35      1612.6056      300609.69      300634.99      301807.35      1117.3172     -1149.1109      1035.155       7855.141       5307.216       13162.357      156999.02      42.817599      42.817599      85.635199          16004 
    244000   3809.5504      298804.09      1619.5121      298958.22      297730.26      299723.8       2122.7414     -1996.2041      748.90495      7880.2458      5457.3315      13337.577      157099.45      42.826728      42.826728      85.653455          16004 
    245000   3773.6139      299221.65      1626.4163      299849.92      299034.38      298780.66      2068.7556     -1994.7851      3260.8503      7805.9094      5438.9369      13244.846      157041.8       42.821488      42.821488      85.642975          16004 
    246000   3780.1802      295566.73      1633.3224      295722.79      295975.14      295002.27     -987.89428      2481.3807     -1825.2423      7819.4922      5401.6906      13221.183      157221.46      42.837811      42.837811      85.675623          16004 
    247000   3792.704       296955.86      1640.2263      297798         295856.63      297212.96     -1093.7021      847.02087      1006.2724      7845.3982      5277.4804      13122.879      157127.23      42.829252      42.829252      85.658503          16004 
    248000   3822.5326      296545.86      1647.1375      297622.3       297963.83      294051.45      1088.1615     -3966.3542     -1035.4615      7907.1003      5330.4294      13237.53       157249         42.840313      42.840313      85.680626          16004 
    249000   3773.8895      298216.38      1654.0537      299634.94      294312.03      300702.16      564.14742      585.63759     -696.56958      7806.4796      5446.8236      13253.303      157176.45      42.833723      42.833723      85.667446          16004 
    250000   3844.4315      296112.33      1660.9741      295085.17      297666.51      295585.31      3383.5436      541.97288      208.79215      7952.3992      5389.306       13341.705      157208.76      42.836658      42.836658      85.673317          16004 
    251000   3779.7322      297909.64      1667.8909      296728.36      297193.36      299807.2      -1292.4553      2018.996      -4010.9758      7818.5655      5383.4027      13201.968      157105.19      42.827249      42.827249      85.654498          16004 
    252000   3825.1209      294007.87      1674.8026      293683.78      295132.13      293207.7      -334.54712      1045.9471      623.53238      7912.4543      5382.6899      13295.144      157382.09      42.852396      42.852396      85.704792          16004 
    253000   3784.9747      297479.49      1681.7127      296331.09      298595.62      297511.76     -2374.5298      1606.2305     -587.12274      7829.4097      5327.9781      13157.388      157110.87      42.827765      42.827765      85.655531          16004 
    254000   3777.62        296232.07      1688.6343      297728.8       293347.15      297620.25     -463.21854     -734.83626      825.22937      7814.1963      5387.2272      13201.424      157232.3       42.838796      42.838796      85.677593          16004 
    255000   3814.992       294825.98      1695.5521      294778.22      294379.28      295320.42     -2285.5551      572.55485      647.09948      7891.5022      5297.7149      13189.217      157300.08      42.844951      42.844951      85.689902          16004 
    256000   3785.4719      295405.44      1702.4656      294669.08      295366.19      296181.04      108.91357      1684.261      -2518.0294      7830.4384      5410.24        13240.678      157238.66      42.839373      42.839373      85.678747          16004 
    257000   3797.7552      297200.51      1709.3857      296169.3       297099.06      298333.17     -682.05957     -2714.7776     -1124.6618      7855.8469      5269.2763      13125.123      157136.56      42.8301        42.8301        85.660199          16004 
    258000   3793.4176      291524.34      1716.2972      291962.46      292207.05      290403.49     -1968.4998      1836.6953     -371.05812      7846.8743      5320.417       13167.291      157386.46      42.852792      42.852792      85.705584          16004 
    259000   3767.7138      295436.66      1723.2073      294624.39      296808.45      294877.13     -707.38985      1425.3415     -2970.0734      7793.7048      5225.0691      13018.774      157172.16      42.833333      42.833333      85.666666          16004 
    260000   3803.1937      298278.47      1730.1148      298705.19      296246.72      299883.49      1049.9676      1811.228       1152.7333      7867.0968      5332.9103      13200.007      157156.31      42.831894      42.831894      85.663788          16004 
    261000   3802.1777      298434.42      1737.0222      298113.72      299043.37      298146.18     -1186.3566      1043.0051     -2530.7496      7864.995       5299.8665      13164.861      157022.64      42.819747      42.819747      85.639493          16004 
    262000   3838.3138      293885.21      1743.9324      293545.09      293815.84      294294.71      51.965592     -706.65259      16.708742      7939.7444      5304.7006      13244.445      157344.99      42.849028      42.849028      85.698057          16004 
    263000   3770.7185      291627.32      1750.8442      292437.6       290462.85      291981.5       1346.2942     -4338.7055      1719.6806      7799.92        5281.5765      13081.497      157429.16      42.856667      42.856667      85.713334          16004 
    264000   3816.6866      293729.75      1757.7655      295015.65      291863.78      294309.82      878.93966     -3708.7762      228.06111      7895.0075      5207.2151      13102.223      157339.23      42.848505      42.848505      85.69701           16004 
    265000   3793.9505      299742.42      1764.6975      300408.61      300925.54      297893.11      1407.9035     -976.70922     -465.33001      7847.9766      5484.7968      13332.773      157183.11      42.834328      42.834328      85.668657          16004 
    266000   3809.7959      299527.65      1771.6452      299484.84      300811.88      298286.25     -848.37127      148.3614      -974.21724      7880.7537      5488.2033      13368.957      157096.52      42.826462      42.826462      85.652923          16004 
    267000   3765.8598      301382.4       1778.5739      301648.77      299835.51      302662.92      118.10682     -322.76341      1173.4959      7789.8696      5446.8348      13236.704      156922.1       42.810606      42.810606      85.621211          16004 
    268000   3819.9742      303296.19      1785.5044      302484.9       304736.37      302667.29     -756.36584     -1482.7926      2076.8128      7901.8079      5466.4064      13368.214      156891.64      42.807835      42.807835      85.615671          16004 
    269000   3834.2488      303234.98      1792.4449      302723.82      304168.17      302812.93     -740.17665      1848.7877      353.05997      7931.3358      5411.2486      13342.584      156892.5       42.807914      42.807914      85.615828          16004 
    270000   3781.9278      301735.95      1799.3643      301317.98      302326.54      301563.33      1212.4705     -1695.2562      1261.0583      7823.1072      5409.7028      13232.81       156886.18      42.807339      42.807339      85.614679          16004 
    271000   3802.8069      298927.74      1806.301       298369.37      298621.38      299792.47      74.569937      365.79252      1997.8023      7866.2965      5425.9362      13292.233      157104.6       42.827196      42.827196      85.654391          16004 
    272000   3791.5389      299538.33      1813.2397      300105.79      298253.72      300255.5      -1418.7724      2849.497      -3164.146       7842.9881      5385.2631      13228.251      157014.45      42.819002      42.819002      85.638004          16004 
    273000   3849.4712      297983.68      1820.16        298102.23      299487.73      296361.09      2573.7558      484.56435     -2262.9154      7962.824       5364.4715      13327.295      157115.95      42.828227      42.828227      85.656454          16004 
    274000   3773.7834      300917.15      1827.1021      298389.32      302084.03      302278.11     -341.50567      3040.0485     -1074.6095      7806.26        5398.4693      13204.729      156934.96      42.811775      42.811775      85.623549          16004 
    275000   3824.1803      298987.42      1834.0354      300341.13      299078.38      297542.75      557.48303     -221.57533      2275.4508      7910.5086      5470.5847      13381.093      157100.02      42.826779      42.826779      85.653559          16004 
    276000   3769.0289      302876.1       1840.9629      302942.38      301374.37      304311.54     -866.3785      -315.04941     -1417.9131      7796.4251      5401.2632      13197.688      156897.25      42.808346      42.808346      85.616692          16004 
    277000   3837.8597      302801.58      1847.9154      303895.1       303364.22      301145.43     -2234.2056     -94.510003     -3345.7662      7938.805       5431.014       13369.819      156974.96      42.815412      42.815412      85.630824          16004 
    278000   3814.8095      302479.94      1854.8473      303324.15      302054.92      302060.75     -367.47948      2046.2511      1085.9942      7891.1245      5401.5937      13292.718      156924.9       42.81086       42.81086       85.621721          16004 
    279000   3806.7864      302183.06      1861.7746      302165.87      303301.97      301081.34      892.94057     -128.44603     -1117.8834      7874.5283      5426.1104      13300.639      156907.87      42.809311      42.809311      85.618622          16004 
    280000   3780.4064      302595.54      1868.7182      302581.01      303909.69      301295.92     -1721.0277     -2274.9554      833.47253      7819.9601      5476.7883      13296.748      156861.11      42.805058      42.805058      85.610117          16004 
    281000   3794.4284      300507.59      1875.6429      300041.52      300138.21      301343.04      1037.5639     -1138.216       43.87393       7848.9653      5420.2861      13269.251      156878.46      42.806636      42.806636      85.613273          16004 
    282000   3804.044       299439.12      1882.5739      300669.31      299163.5       298484.54     -3347.1506     -1577.0349     -1784.3738      7868.8556      5373.5124      13242.368      157055.39      42.822724      42.822724      85.645448          16004 
    283000   3745.8669      299016.18      1889.5124      299722.86      297272.41      300053.27     -1544.2035     -547.45717      647.49242      7748.5133      5404.8449      13153.358      157075.71      42.82457       42.82457       85.64914           16004 
    284000   3810.6195      296158.3       1896.4353      294831.98      297290.67      296352.24     -1675.3138      625.21232     -1319.6162      7882.4573      5293.7705      13176.228      157154.45      42.831724      42.831724      85.663449          16004 
    285000   3836.4764      298440.31      1903.3701      300114.11      297859.25      297347.56      1734.1978      1611.7584      1107.5084      7935.9436      5504.1502      13440.094      157222.74      42.837927      42.837927      85.675855          16004 
    286000   3747.6293      298177.26      1910.3059      298637.54      298343.77      297550.46      2322.3683      407.19814      4804.9396      7752.159       5426.3045      13178.464      157177.73      42.83384       42.83384       85.66768           16004 
[...]
   3930000   3558.5025      300804.89      7141.0209      300733.09      293731.44      307950.16      331.91547      2472.0307     -576.1076       7360.9407      12832.898      20193.838      161215.88      43.099544      43.099544      86.788555          16004 
   3931000   3562.0755      303064.95      7148.7568      300527.04      300317.11      308350.69     -154.7113       155.48087     -1316.5123      7368.3317      12901.079      20269.41       160801.34      43.062572      43.062572      86.714106          16004 
   3932000   3574.5776      297721.87      7156.4958      295590.86      296839.04      300735.72      320.78486     -1798.7537     -150.28812      7394.1929      12786.403      20180.596      161273.43      43.104672      43.104672      86.798882          16004 
   3933000   3549.382       298984.62      7164.2269      297522.89      296182.51      303248.47     -2828.9094     -4885.5048     -1548.4538      7342.0744      12841.861      20183.936      161254.3       43.102968      43.102968      86.79545           16004 
   3934000   3559.7037      303394.91      7171.9732      300335.98      298914.02      310934.73      2273.0141      2516.4009     -210.71366      7363.4254      12847.663      20211.088      161104.23      43.089592      43.089592      86.768516          16004 
   3935000   3562.6518      296618.17      7179.7111      298327.3       289937.94      301589.27     -811.29158     -197.83981      726.25501      7369.5238      12788.357      20157.88       161389.15      43.114979      43.114979      86.819637          16004 
   3936000   3577.3786      301056.39      7187.4509      298948.35      295018.04      309202.78     -976.79908      1057.1069     -492.66322      7399.9868      12838.985      20238.972      160954.08      43.076202      43.076202      86.741552          16004 
   3937000   3572.2975      302329.35      7195.1986      301619.47      299164.43      306204.16      658.84827      56.164743      497.65476      7389.4763      12811.593      20201.069      161154.98      43.094116      43.094116      86.777626          16004 
   3938000   3565.6613      302328.06      7202.9399      301006.23      298383.29      307594.67     -443.10073     -4008.1396     -563.06573      7375.7489      12832.336      20208.085      161114.65      43.090521      43.090521      86.770387          16004 
   3939000   3566.6976      298445.92      7210.6839      296891.41      291972.48      306473.87      2233.8843      364.88098     -339.2724       7377.8928      12805.055      20182.948      161246.87      43.102306      43.102306      86.794118          16004 
   3940000   3528.4375      293549.06      7218.423       292022.41      288130.41      300494.35     -876.38958      199.1169      -2389.2032      7298.7497      12838.772      20137.522      161489.49      43.123913      43.123913      86.837626          16004 
   3941000   3590.8722      295929.93      7226.1771      297249.54      288499.69      302040.58      406.60145     -3011.2402     -817.54028      7427.899       12696.927      20124.826      161553.95      43.12965       43.12965       86.84918           16004 
   3942000   3566.5031      303031.96      7233.9189      298835.6       299622.62      310637.67     -3088.7939      1028.8598     -5395.3282      7377.4904      12810.932      20188.422      161209.76      43.098999      43.098999      86.787458          16004 
   3943000   3543.7069      302068.5       7241.6599      303676.39      297694.99      304834.12     -1013.171       183.6612      -626.99636      7330.3352      12851.49       20181.826      161243.69      43.102022      43.102022      86.793546          16004 
   3944000   3564.0693      302873.24      7249.4265      304984.6       295175.11      308459.99      2188.9842     -865.53798     -1381.0629      7372.456       12897.879      20270.335      160761.87      43.059048      43.059048      86.70701           16004 
   3945000   3525.9097      301640.42      7257.1717      302251.02      295305.63      307364.61     -2382.4415      785.06874     -1206.428       7293.521       12904.668      20198.189      161143.31      43.093076      43.093076      86.775531          16004 
   3946000   3552.817       300560.84      7264.9432      299331.13      295633.46      306717.93     -2776.9999     -604.16518     -1821.8769      7349.1799      12836.028      20185.208      161211.78      43.099179      43.099179      86.787821          16004 
   3947000   3572.5099      301095.44      7272.6834      297445.85      295790.94      310049.55      1852.8251     -2064.3265     -4294.3518      7389.9158      12780.732      20170.648      161289.26      43.106083      43.106083      86.801722          16004 
   3948000   3521.2662      300119.44      7280.4596      298870.58      296066.53      305421.22      874.33837     -784.0138       1792.3755      7283.9156      12892.891      20176.807      161250.55      43.102633      43.102633      86.794777          16004 
   3949000   3537.1583      297598.8       7288.2136      294607.59      294532         303656.81     -648.11082     -3156.0839      200.75075      7316.7892      12854.125      20170.914      161280.12      43.105268      43.105268      86.800083          16004 
   3950000   3591.9103      300449.68      7295.9632      301928.62      295073.64      304346.77      1095.4752      1458.1127      1270.1379      7430.0464      12782.69       20212.736      161055.29      43.085229      43.085229      86.759729          16004 
   3951000   3571.6867      302487.07      7303.7252      303029.45      295935.55      308496.21     -361.7497       2040.2237      4886.1916      7388.2128      12813.046      20201.259      161116.12      43.090652      43.090652      86.770651          16004 
   3952000   3534.4926      299691.53      7311.4749      297844.73      294761.27      306468.57      849.42169     -3141.1073     -1107.356       7311.275       12834.09       20145.365      161411.61      43.116979      43.116979      86.823664          16004 
   3953000   3535.4195      301873.3       7319.2471      299514.54      296508.39      309596.95     -1736.4414     -2408.1116      1580.1431      7313.1925      12906.223      20219.415      161014.96      43.081632      43.081632      86.752486          16004 
   3954000   3571.3421      298164.15      7327.0082      297919.85      292814.4       303758.19     -1287.0044     -3103.7251     -3190.1696      7387.5001      12777.023      20164.523      161308.47      43.107794      43.107794      86.805168          16004 
   3955000   3572.2435      298619.08      7334.7626      296666.58      298974.91      300215.75      1027.8678     -444.67307     -113.62221      7389.3647      12773.25       20162.614      161311.29      43.108044      43.108044      86.805673          16004 
   3956000   3589.6612      299523.9       7342.5263      300346.46      294832.98      303392.25     -1383.2752     -1733.7742      2163.3058      7425.3941      12728.915      20154.309      161353.45      43.1118        43.1118        86.813235          16004 
   3957000   3557.8498      304644.58      7350.2791      303818.72      297101.71      313013.31     -1504.2814      3974.3958     -1480.2995      7359.5905      12859.203      20218.794      161009.65      43.081158      43.081158      86.751532          16004 
   3958000   3569.7517      299359.63      7358.0421      298914.67      293550.05      305614.16      4721.4759     -4337.6467      2200.1166      7384.2103      12778.198      20162.408      161309.28      43.107866      43.107866      86.805312          16004 
   3959000   3579.2287      300257.25      7365.7969      299445.34      295415.85      305910.57     -814.46475     -452.5394      -777.74814      7403.814       12814.665      20218.479      161010.07      43.081196      43.081196      86.751608          16004 
   3960000   3558.9293      291979.4       7373.5591      292400.16      285105.35      298432.68     -2396.6665      855.61409     -437.77764      7361.8236      12730.497      20092.321      161685.2       43.141327      43.141327      86.872692          16004 
   3961000   3560.0372      296306.58      7381.3061      295051.52      292096.59      301771.62     -241.22833      288.07659     -1594.1681      7364.1154      12754.963      20119.078      161530.36      43.12755       43.12755       86.844951          16004 
   3962000   3575.4775      300501.17      7389.0671      296953.13      292900.47      311649.92      729.71381     -4427.0469     -4448.6513      7396.0544      12785.07       20181.124      161196.2       43.097791      43.097791      86.785025          16004 
   3963000   3581.0448      298056.89      7396.8245      296446.9       292952.53      304771.23     -673.59876      964.47663      556.92421      7407.5705      12738.454      20146.024      161381.93      43.114336      43.114336      86.818343          16004 
   3964000   3580.1177      296704.13      7404.5646      294805.3       293877.3       301429.8      -888.59983     -3456.0032     -3728.8066      7405.6529      12705.105      20110.758      161569.52      43.131035      43.131035      86.851969          16004 
   3965000   3572.5475      293644.87      7412.3132      293290.44      289439.25      298204.9       2745.3236     -135.42353      3983.5842      7389.9935      12715.504      20105.497      161600.29      43.133774      43.133774      86.857483          16004 
   3966000   3607.045       299763.71      7420.0594      298783.5       292823.62      307684.01      365.77156      2638.8149     -2137.9809      7461.3534      12724.372      20185.726      161170.53      43.095502      43.095502      86.780417          16004 
   3967000   3554.7406      300445.12      7427.8063      300534.31      293569.86      307231.2       349.43788     -1333.6984      645.06372      7353.159       12831.239      20184.398      161171.24      43.095566      43.095566      86.780544          16004 
   3968000   3551.0411      299193.65      7435.5537      299408.99      294099.59      304072.38      1755.6735     -942.33425      3210.7805      7345.5065      12842.625      20188.132      161150.15      43.093686      43.093686      86.776759          16004 
   3969000   3564.8644      300527         7443.3107      297015.94      296474.5       308090.56      1367.6826      2380.8188     -2515.7759      7374.1005      12837.987      20212.087      161018.26      43.081926      43.081926      86.753079          16004 
   3970000   3569.9074      301796.79      7451.0488      302091.95      294785.22      308513.22     -240.82212     -1989.5085      1934.9088      7384.5322      12807.272      20191.805      161127.17      43.091637      43.091637      86.772634          16004 
   3971000   3558.3455      302842.37      7458.7963      304970.7       295126.66      308429.75     -2281.7735      3189.077      -2051.1432      7360.6159      12819.295      20179.911      161192.41      43.097452      43.097452      86.784343          16004 
   3972000   3518.2991      303524.13      7466.5557      302610.52      295147.98      312813.9      -2167.5388     -481.76257     -180.02569      7277.778       12924.223      20202.001      161071         43.08663       43.08663       86.762551          16004 
   3973000   3603.2695      294685.98      7474.3024      292419.07      290015.81      301623.06     -1070.7057      1932.7658      151.58483      7453.5434      12670.125      20123.669      161487.91      43.123772      43.123772      86.837343          16004 
   3974000   3571.9489      293345.17      7482.0483      292038.55      285751.17      302245.8      -340.40248     -4506.7866      1073.3388      7388.7553      12704.754      20093.509      161649.5       43.138151      43.138151      86.866297          16004 
   3975000   3580.1883      297164.86      7489.7917      294698.77      289579.66      307216.15     -12.19593       290.62286     -3760.4437      7405.7989      12712.757      20118.556      161514.89      43.126174      43.126174      86.842179          16004 
   3976000   3562.2078      297793.51      7497.5375      294483.48      290217.34      308679.71      1752.8567      2990.898      -712.12086      7368.6054      12703.873      20072.478      161758.44      43.147839      43.147839      86.885807          16004 
   3977000   3581.2722      296986.83      7505.286       295604.53      294769.31      300586.65      1285.5635     -5100.1458     -2005.8797      7408.0409      12687.22       20095.261      161633.88      43.136762      43.136762      86.8635            16004 
   3978000   3581.4354      302509.29      7513.0407      299711.51      294385.79      313430.56      1097.5111      3736.2514     -1459.6499      7408.3787      12715.625      20124.004      161478.54      43.122938      43.122938      86.835663          16004 
   3979000   3630.5217      303090.27      7520.7887      300062.15      297158.6       312050.08      1267.5419      1206.366      -3853.277       7509.9161      12699.796      20209.712      161021.47      43.082213      43.082213      86.753656          16004 
   3980000   3565.663       300629.02      7528.5262      299437.67      293422.87      309026.52     -24.548561     -1111.2627     -1528.4218      7375.7525      12723.45       20099.203      161610.89      43.134716      43.134716      86.859381          16004 
   3981000   3579.2471      300422.44      7536.267       295547.54      295496.36      310223.42     -900.03611     -1775.1395     -393.96388      7403.852       12754.446      20158.298      161284.05      43.105618      43.105618      86.800787          16004 
   3982000   3548.3539      303827.53      7544.0053      301506.23      300477.26      309499.1      -1225.6277      4044.0374      1766.513       7339.9479      12842.865      20182.813      161150.52      43.093719      43.093719      86.776825          16004 
   3983000   3555.9446      302147.05      7551.7374      302796.21      294979         308665.93      1562.4521      476.69413     -3504.946       7355.6497      12833.33       20188.98       161115.87      43.09063       43.09063       86.770607          16004 
   3984000   3543.4277      297809.35      7559.4727      297445.46      291694.96      304287.63      193.27943      3682.9476     -4712.9516      7329.7578      12763.203      20092.961      161624.02      43.135884      43.135884      86.861733          16004 
   3985000   3548.8398      297895.32      7567.2202      295965.91      292082.83      305637.23      2594.1087     -1483.1325      511.71207      7340.953       12751.857      20092.81       161624.27      43.135907      43.135907      86.861778          16004 
   3986000   3580.9118      300491.48      7574.9613      293951.95      296284.33      311238.16      2554.5915     -1359.5724      4263.6232      7407.2954      12754.139      20161.434      161257         43.103209      43.103209      86.795935          16004 
   3987000   3570.3614      305237.98      7582.7108      304064.71      299333.43      312315.8       1215.2536     -2196.1785      1249.7487      7385.4715      12826.528      20211.999      160986.87      43.079127      43.079127      86.747441          16004 
   3988000   3565.8906      299830.83      7590.4637      300966.99      294168.06      304357.44     -1990.6392      743.10548     -1015.1878      7376.2233      12788.209      20164.432      161238.44      43.101555      43.101555      86.792604          16004 
   3989000   3547.7263      297981.97      7598.2003      298589.97      292393.05      302962.89     -2126.6092     -717.5672       2041.5316      7338.6496      12791.303      20129.952      161423.17      43.118008      43.118008      86.825737          16004 
   3990000   3564.4246      294901.52      7605.9521      293787.66      288775.54      302141.35      1073.8263     -422.79496      1940.9923      7373.1909      12709.364      20082.555      161675.33      43.140449      43.140449      86.870924          16004 
   3991000   3562.8251      302683.98      7613.6921      302425.19      295115.68      310511.07     -794.67248      3789.9528     -280.79399      7369.8822      12815.655      20185.537      161129.59      43.091853      43.091853      86.773068          16004 
   3992000   3586.8563      300807.09      7621.454       298869.99      295454.95      308096.33     -2709.4062      820.19039     -1548.6762      7419.5919      12711.552      20131.144      161419.38      43.117672      43.117672      86.825059          16004 
   3993000   3544.2472      294070.31      7629.2193      289674.22      289549.91      302986.81      2510.7329     -873.52138      706.30835      7331.4529      12742.626      20074.079      161723.26      43.144711      43.144711      86.879507          16004 
   3994000   3531.4831      299490.95      7636.9669      302263.41      292086.04      304123.41     -2009.1417     -2948.7072      607.51668      7305.0497      12835.747      20140.797      161362.1       43.11257       43.11257       86.814786          16004 
   3995000   3582.0478      300252.42      7644.7352      301635.34      294119.52      305002.4       2884.1227     -535.53081      2585.1065      7409.6454      12759.784      20169.429      161206.07      43.09867       43.09867       86.786796          16004 
   3996000   3513.099       297799.88      7652.4979      295766.73      289499.55      308133.37      4240.5662      1285.8859      2381.1022      7267.0214      12871.906      20138.927      161365.45      43.112868      43.112868      86.815387          16004 
   3997000   3562.2369      291233.79      7660.2488      287679.37      287260.73      298761.27      1446.2948     -2108.3496     -292.64037      7368.6656      12687.286      20055.952      161810.39      43.152458      43.152458      86.895108          16004 
   3998000   3599.7575      295969.98      7668.0126      295544.73      289536.84      302828.35     -411.41245      2448.1361      4682.2499      7446.2787      12627.843      20074.122      161707.3       43.143292      43.143292      86.87665           16004 
   3999000   3554.5599      300590.85      7675.756       298929.06      296055.15      306788.34      767.26584      4727.0591      1139.0327      7352.7852      12782.401      20135.186      161377.65      43.113955      43.113955      86.817575          16004 
   4000000   3552.6629      303565.72      7683.5264      302548.8       299651.53      308496.83     -2880.6145     -514.96427      160.65324      7348.8611      12775.058      20123.92       161434.7       43.119035      43.119035      86.827804          16004 
Loop time of 7683.53 on 8 procs for 1000000 steps with 16004 atoms

Performance: 5.622 ns/day, 4.269 hours/ns, 130.149 timesteps/s
64.8% CPU use with 1 MPI tasks x 8 OpenMP threads

MPI task timing breakdown:
Section |  min time  |  avg time  |  max time  |%varavg| %total
---------------------------------------------------------------
Pair    | 7180       | 7180       | 7180       |   0.0 | 93.45
Neigh   | 14.991     | 14.991     | 14.991     |   0.0 |  0.20
Comm    | 113.48     | 113.48     | 113.48     |   0.0 |  1.48
Output  | 3.813      | 3.813      | 3.813      |   0.0 |  0.05
Modify  | 326.39     | 326.39     | 326.39     |   0.0 |  4.25
Other   |            | 44.87      |            |       |  0.58

Nlocal:          16004 ave       16004 max       16004 min
Histogram: 1 0 0 0 0 0 0 0 0 0
Nghost:          14209 ave       14209 max       14209 min
Histogram: 1 0 0 0 0 0 0 0 0 0
Neighs:              0 ave           0 max           0 min
Histogram: 1 0 0 0 0 0 0 0 0 0
FullNghs:  1.46805e+06 ave 1.46805e+06 max 1.46805e+06 min
Histogram: 1 0 0 0 0 0 0 0 0 0

Total # of neighbors = 1468046
Ave neighs/atom = 91.729943
Neighbor list builds = 32470
Dangerous builds = 0
Total wall time: 7:54:45
