
atom_style atomic
units metal
boundary p p p
#atom_modify sort 0 0.0
newton on

read_data data.lammps
Reading data file ...
  orthogonal box = (0 0 0) to (43.790145 43.790145 87.58029)
  1 by 1 by 1 MPI processor grid
  reading atoms ...
  16004 atoms
  read_data CPU = 0.039 seconds
# replicate 10 10 20

### interactions

pair_style flare
pair_coeff * * lmp.flare
Reading potential file lmp.flare with DATE: Thu

# compute unc all flare/std/atom L_inv_lmp.flare sparse_desc_lmp.flare
# compute MaxUnc all reduce max c_unc

mass 1 12.011000
mass 2 28.085000

thermo_style custom step temp press cpu pxx pyy pzz pxy pxz pyz ke pe etotal vol lx ly lz atoms    #c_MaxUnc
thermo 1000
timestep 0.0005
restart 100000 restart_*.dat

#################### Equilibrate at P and T_es ##############################
velocity all create $T 41928459 rot yes dist gaussian
velocity all create 3600 41928459 rot yes dist gaussian
fix mom all momentum 1000 linear 1 1 1 angular

fix 1 all npt temp $T $T $(100.0*dt) iso $P $P $(1000.0*dt)
fix 1 all npt temp 3600 $T $(100.0*dt) iso $P $P $(1000.0*dt)
fix 1 all npt temp 3600 3600 $(100.0*dt) iso $P $P $(1000.0*dt)
fix 1 all npt temp 3600 3600 0.050000000000000002776 iso $P $P $(1000.0*dt)
fix 1 all npt temp 3600 3600 0.050000000000000002776 iso 600000 $P $(1000.0*dt)
fix 1 all npt temp 3600 3600 0.050000000000000002776 iso 600000 600000 $(1000.0*dt)
fix 1 all npt temp 3600 3600 0.050000000000000002776 iso 600000 600000 0.5
dump 1 all custom 1000 1equil.bin id type x y z vx vy vz
run   10000 # report performance
Neighbor list info ...
  update every 1 steps, delay 10 steps, check yes
  max neighbors/atom: 2000, page size: 100000
  master list distance cutoff = 6
  ghost atom cutoff = 6
  binsize = 6, bins = 8 8 15
  1 neighbor lists, perpetual/occasional/extra = 1 0 0
  (1) pair flare/kk, perpetual
      attributes: full, newton on, kokkos_device
      pair build: full/bin/kk/device
      stencil: full/bin/3d
      bin: kk/device
Per MPI rank memory allocation (min/avg/max) = 15.9 | 15.9 | 15.9 Mbytes
   Step          Temp          Press           CPU            Pxx            Pyy            Pzz            Pxy            Pxz            Pyz           KinEng         PotEng         TotEng         Volume           Lx             Ly             Lz          Atoms   
         0   3600           67557.906      0              67141.204      67594.979      67937.535     -846.34414      34.024028     -558.57611      7446.7804     -4000.2205      3446.5599      167941.93      43.790145      43.790145      87.58029           16004 
      1000   3653.1003      599664.17      6.6639441      598556.44      598856.42      601579.65      2415.2014     -2700.9932      723.96841      7556.6211      7825.2415      15381.863      142610.99      41.467482      41.467482      82.934964          16004 
      2000   3559.2387      600636.27      13.355265      601125.16      603026.27      597757.37      2558.3031     -3598.8023     -88.762676      7362.4635      7602.7863      14965.25       142406.92      41.447694      41.447694      82.895387          16004 
      3000   3617.3593      600114.59      20.043976      600877.48      601696.28      597770        -222.06737      2872.2947     -992.7271       7482.6889      7675.8819      15158.571      142413.89      41.448369      41.448369      82.896739          16004 
      4000   3599.5312      600737.95      26.734798      601984.35      599163.84      601065.65     -3635.35        3948.9531      2736.7719      7445.8106      7652.5684      15098.379      142337.97      41.441003      41.441003      82.882007          16004 
      5000   3630.841       599975.36      33.428248      599845.48      599472.4       600608.19      2167.2888     -3208.8962      3759.6349      7510.5766      7618.0851      15128.662      142336.62      41.440872      41.440872      82.881743          16004 
      6000   3607.4421      599471.98      40.120297      598643.62      599312.25      600460.09     -173.42466     -974.01198      609.20462      7462.1748      7697.6434      15159.818      142340.3       41.441229      41.441229      82.882458          16004 
      7000   3619.9351      602101.03      46.814434      601257.27      602875.88      602169.93      130.80395     -2469.5016     -346.18856      7488.0172      7630.1399      15118.157      142260.73      41.433505      41.433505      82.867011          16004 
      8000   3595.4106      598280.76      53.50801       600217.6       596514.86      598109.82     -1362.0954     -2418.1776      925.54166      7437.2869      7740.6563      15177.943      142321.84      41.439438      41.439438      82.878876          16004 
      9000   3591.7349      599770.26      60.203984      599716.11      600643.24      598951.44      1707.2904     -1865.3735      689.52354      7429.6836      7656.4305      15086.114      142332.64      41.440486      41.440486      82.880972          16004 
     10000   3593.6707      590471.68      66.901727      588722.91      592316.09      590376.06      273.97302     -3334.7327      408.81369      7433.6879      7651.805       15085.493      142626.01      41.468938      41.468938      82.937876          16004 
Loop time of 66.9017 on 8 procs for 10000 steps with 16004 atoms

Performance: 6.457 ns/day, 3.717 hours/ns, 149.473 timesteps/s
62.2% CPU use with 1 MPI tasks x 8 OpenMP threads

MPI task timing breakdown:
Section |  min time  |  avg time  |  max time  |%varavg| %total
---------------------------------------------------------------
Pair    | 63.64      | 63.64      | 63.64      |   0.0 | 95.12
Neigh   | 0.11077    | 0.11077    | 0.11077    |   0.0 |  0.17
Comm    | 0.44307    | 0.44307    | 0.44307    |   0.0 |  0.66
Output  | 0.014213   | 0.014213   | 0.014213   |   0.0 |  0.02
Modify  | 2.4125     | 2.4125     | 2.4125     |   0.0 |  3.61
Other   |            | 0.2815     |            |       |  0.42

Nlocal:          16004 ave       16004 max       16004 min
Histogram: 1 0 0 0 0 0 0 0 0 0
Nghost:          13867 ave       13867 max       13867 min
Histogram: 1 0 0 0 0 0 0 0 0 0
Neighs:              0 ave           0 max           0 min
Histogram: 1 0 0 0 0 0 0 0 0 0
FullNghs:  1.61832e+06 ave 1.61832e+06 max 1.61832e+06 min
Histogram: 1 0 0 0 0 0 0 0 0 0

Total # of neighbors = 1618316
Ave neighs/atom = 101.11947
Neighbor list builds = 271
Dangerous builds = 0
run  990000
Per MPI rank memory allocation (min/avg/max) = 16.2 | 16.2 | 16.2 Mbytes
   Step          Temp          Press           CPU            Pxx            Pyy            Pzz            Pxy            Pxz            Pyz           KinEng         PotEng         TotEng         Volume           Lx             Ly             Lz          Atoms   
     10000   3593.6707      590471.68      0              588722.91      592316.09      590376.06      273.97302     -3334.7327      408.81369      7433.6879      7651.805       15085.493      142626.01      41.468938      41.468938      82.937876          16004 
     11000   3593.2662      605597.85      6.6947395      606510.31      606900.98      603382.25      2764.0332      973.13919     -1266.0407      7432.8512      7722.1731      15155.024      142059.17      41.413928      41.413928      82.827856          16004 
     12000   3658.9442      600581.26      13.38933       601143.89      599265.73      601334.17      3826.4864     -3730.8931      2896.6785      7568.7095      7674.3209      15243.03       142311.46      41.43843       41.43843       82.87686           16004 
     13000   3529.4918      598354.08      20.083413      596148.19      600428.66      598485.39      1165.4262     -2438.1148     -1483.3862      7300.9307      7747.2955      15048.226      142323.18      41.439568      41.439568      82.879136          16004 
     14000   3607.5079      603522.11      26.776451      602868.87      603980.02      603717.45      3016.4295      1552.1348     -3835.6763      7462.3109      7800.3053      15262.616      142242.86      41.43177       41.43177       82.863541          16004 
     15000   3625.1862      596793.51      33.468635      597220.04      597234.12      595926.36      813.51157     -641.58531      184.79035      7498.8792      7703.2295      15202.109      142434.67      41.450385      41.450385      82.900771          16004 
     16000   3611.1974      598256.36      40.15708       596922.25      597244.5       600602.32     -1457.6575     -1169.0895     -1889.7732      7469.9427      7651.5947      15121.537      142358.83      41.443027      41.443027      82.886054          16004 
     17000   3618.607       605544.41      46.844333      606262.95      607053.42      603316.86      2000.7852     -3064.5903      3990.5957      7485.2698      7846.478       15331.748      142153.14      41.423057      41.423057      82.846115          16004 
     18000   3622.7161      597498.25      53.530581      597841.72      599401.4       595251.64     -12.93588      -5154.4234      2552.2013      7493.7698      7551.6677      15045.437      142437.38      41.450648      41.450648      82.901296          16004 
     19000   3565.0128      599590.53      60.213817      599893.42      598864.74      600013.41      2894.3589      1173.2689     -119.45324      7374.4076      7675.4903      15049.898      142331.77      41.440402      41.440402      82.880803          16004 
     20000   3587.9034      602558.07      66.902128      599931.22      603700.36      604042.63     -329.372        1199.0033     -2501.7732      7421.7579      7761.354       15183.112      142184.92      41.426144      41.426144      82.852289          16004 
     21000   3594.4876      598706.27      73.592665      597171.01      599350.29      599597.51     -1388.5734      46.134106      116.99036      7435.3776      7736.9932      15172.371      142400.24      41.447045      41.447045      82.89409           16004 
     22000   3604.4941      600383.3       80.279177      599992.68      600175.04      600982.19     -2225.1641     -1395.8396     -1740.9132      7456.0767      7648.4215      15104.498      142298.38      41.437161      41.437161      82.874321          16004 
     23000   3574.1205      602250.54      86.971401      603679.5       602080.6       600991.51     -845.12512      138.57711     -401.75219      7393.2474      7693.2805      15086.528      142219.52      41.429504      41.429504      82.859008          16004 
     24000   3558.6681      598444.03      93.660413      598047.25      599947.92      597336.91     -1357.6997      1491.4083      3327.1701      7361.2832      7702.8051      15064.088      142328.4       41.440075      41.440075      82.880149          16004 
     25000   3587.2794      593494.81      100.34902      594225.08      592464.51      593794.83      1631.4431      2155.8697      1003.0142      7420.4672      7622.8321      15043.299      142524.73      41.459119      41.459119      82.918239          16004 
     26000   3622.3956      604944.8       107.04367      605840         606391.9       602602.49      3876.9213      941.08474      1539.5052      7493.1067      7783.1532      15276.26       142125.78      41.4204        41.4204        82.8408            16004 
     27000   3581.276       599118.43      113.74004      598418.86      596851.26      602085.18      2268.0424     -34.743792     -574.51907      7408.0488      7652.5646      15060.613      142300.11      41.437329      41.437329      82.874657          16004 
     28000   3616.9255      599077.04      120.43281      596923.61      599690.22      600617.29      975.55957      2264.9095     -2821.0973      7481.7915      7713.4145      15195.206      142367.81      41.443899      41.443899      82.887798          16004 
     29000   3576.479       601635.39      127.12542      600100.33      602513.24      602292.6       1779.421      -413.44808      584.04774      7398.126       7734.5533      15132.679      142263.9       41.433813      41.433813      82.867626          16004 
     30000   3592.7096      600224.33      133.8162       599613.77      598634.52      602424.7      -1384.9386      662.82788      2051.8809      7431.6999      7687.7961      15119.496      142282.72      41.43564       41.43564       82.871281          16004 
     31000   3604.8843      603971.55      140.50578      603069.65      602753.01      606091.99      807.17559      2308.8416      1275.195       7456.8838      7755.4532      15212.337      142163.99      41.424112      41.424112      82.848223          16004 
     32000   3590.2503      597546.45      147.1973       596217.57      597584.2       598837.59     -519.13325     -3171.173      -6602.6488      7426.6126      7708.2473      15134.86       142425.84      41.449529      41.449529      82.899057          16004 
     33000   3602.8522      596133.66      153.88677      597739.54      594617.41      596044.04     -5785.3101      3356.3785      2086.4876      7452.6804      7619.074       15071.754      142515.68      41.458242      41.458242      82.916485          16004 
     34000   3597.1703      600060.18      160.57395      599507.19      600684.26      599989.08     -1280.5353     -300.64625     -340.36269      7440.927       7718.2201      15159.147      142334.19      41.440636      41.440636      82.881272          16004 
     35000   3587.0418      600039.68      167.25992      599919.78      599152.42      601046.86      1473.0498     -3455.8982     -877.23331      7419.9758      7684.9586      15104.934      142288.16      41.436168      41.436168      82.872337          16004 
     36000   3623.6559      596737.41      173.94639      596574.11      597426.24      596211.87      3217.3409      2148.5261      1991.6684      7495.7139      7671.1795      15166.893      142442.72      41.451166      41.451166      82.902332          16004 
     37000   3577.1016      603516.46      180.63015      601736.51      605344.84      603468.04     -779.01686      804.80121      1663.2138      7399.4138      7739.0044      15138.418      142233.01      41.430814      41.430814      82.861629          16004 
     38000   3561.3752      603886.62      187.31501      604644.63      603308.42      603706.82     -1035.689       432.47042     -1042.2142      7366.883       7811.099       15177.982      142149.89      41.422742      41.422742      82.845484          16004 
     39000   3568.2785      591051.05      194.00169      591309.38      591500.77      590343.01      1535.7112     -1152.3348     -3153.158       7381.1628      7614.6858      14995.849      142607.66      41.467159      41.467159      82.934318          16004 
     40000   3627.6039      603308.36      200.68944      601724.21      605321.73      602879.14     -3058.9634      289.71053     -747.5816       7503.8803      7773.7638      15277.644      142290.55      41.4364        41.4364        82.872801          16004 
     41000   3581.8193      601955.72      207.37564      603627.02      600317.86      601922.26      363.17519     -356.29286      2563.8568      7409.1727      7748.0265      15157.199      142213.34      41.428904      41.428904      82.857808          16004 
     42000   3628.5889      596296.5       214.0632       596284.81      597618.47      594986.24      1070.9405      1632.3643      3039.9773      7505.918       7649.6676      15155.586      142393.89      41.446429      41.446429      82.892858          16004 
     43000   3551.8049      597257.3       220.74966      596047.13      597724.42      598000.36      1274.0781     -56.672534      2063.4051      7347.0865      7589.5323      14936.619      142351.03      41.44227       41.44227       82.88454           16004 
     44000   3620.6612      608846.12      227.43979      608340.65      609350.07      608847.65     -172.904        5153.7498      227.00038      7489.519       7825.7473      15315.266      142050.64      41.413099      41.413099      82.826198          16004 
     45000   3595.5193      594618.94      234.13194      597491.4       593371.85      592993.58      2991.3546      1257.8598     -2137.2051      7437.5119      7669.9869      15107.499      142535.45      41.460159      41.460159      82.920318          16004 
     46000   3552.1112      599729.04      240.81922      596777.5       601426.56      600983.06      172.69274     -1402.524      -4066.9999      7347.7199      7713.5617      15061.282      142326.27      41.439868      41.439868      82.879735          16004 
     47000   3602.6661      601610.37      247.50772      600926.73      600797.14      603107.25      2052.5986     -3429.8404     -1136.8576      7452.2953      7721.9932      15174.289      142283.77      41.435742      41.435742      82.871485          16004 
     48000   3589.0463      598423.15      254.19735      599456.49      597220.63      598592.32      3019.4837     -1289.2723      5848.6888      7424.1221      7648.3773      15072.499      142351.74      41.442339      41.442339      82.884678          16004 
     49000   3590.0046      602211.48      260.88463      602978.2       601729.24      601927.01      6.2694946      1371.6538     -112.24843      7426.1043      7654.0716      15080.176      142198.62      41.427475      41.427475      82.854949          16004 
     50000   3615.3604      603154.64      267.57345      604289.76      604583.68      600590.49      2764.5792     -1573.9214     -393.81137      7478.5542      7726.8691      15205.423      142145.64      41.422329      41.422329      82.844659          16004 
     51000   3573.162       592365.51      274.26095      591967.08      594658.96      590470.48     -427.89472      2000.0396      446.06967      7391.2647      7522.9376      14914.202      142569.15      41.463426      41.463426      82.926852          16004 
     52000   3653.6296      600544.31      280.9482       602135.09      598607.33      600890.52     -3920.5238     -766.23183      1691.476       7557.7158      7623.1945      15180.91       142311.24      41.438408      41.438408      82.876817          16004 
     53000   3559.2396      602199.96      287.6374       602336.73      603681.74      600581.41      751.18816      311.39006      1834.5131      7362.4654      7696.3726      15058.838      142162.34      41.423951      41.423951      82.847902          16004 
     54000   3588.1507      598972.13      294.32307      598155.52      598507.09      600253.77     -2403.9509     -2914.6189     -333.78786      7422.2695      7720.0898      15142.359      142373.27      41.444428      41.444428      82.888856          16004 
     55000   3595.9969      602371.97      301.01104      601926.75      603683.92      601505.23      2134.1987     -1503.0147     -785.01804      7438.4998      7796.5651      15235.065      142294.04      41.436739      41.436739      82.873478          16004 
     56000   3568.5038      604672.96      307.70071      606879.22      603790.52      603349.15     -4243.6146      5189.2875     -923.52664      7381.6289      7753.2634      15134.892      142158.01      41.42353       41.42353       82.847061          16004 
     57000   3587.9596      592000.82      314.38944      592843.82      591918.43      591240.2      -89.233746     -1160.1173      131.62658      7421.8741      7606.105       15027.979      142621.97      41.468546      41.468546      82.937093          16004 
     58000   3566.5196      599498.06      321.07822      599815.74      600382.5       598295.95     -164.48742     -1697.7861      59.996388      7377.5245      7677.8689      15055.393      142300.27      41.437344      41.437344      82.874688          16004 
     59000   3592.2452      603246.07      327.76768      603172.38      603116.5       603449.33     -1955.2122     -1709.8023      735.74334      7430.7392      7766.6092      15197.348      142227.25      41.430255      41.430255      82.860511          16004 
     60000   3566.8769      598017.01      334.45656      597840.44      597609         598601.59      2480.4803      2126.5723      258.54133      7378.2635      7630.204       15008.468      142326.3       41.43987       41.43987       82.87974           16004 
     61000   3656.455       599205.45      341.14531      597450.61      600144.09      600021.64      4958.4319     -176.02308      2062.483       7563.5604      7619.8759      15183.436      142397.32      41.446762      41.446762      82.893523          16004 
     62000   3590.7791      602093.56      347.83416      602994.69      602900.65      600385.34     -1386.7427     -4640.5885     -2274.2694      7427.7066      7735.0252      15162.732      142303.61      41.437668      41.437668      82.875336          16004 
     63000   3599.4537      605114.74      354.52461      605551.83      604861.78      604930.6       3571.2122     -2239.4445     -1935.4391      7445.6504      7759.6996      15205.35       142120.48      41.419885      41.419885      82.83977           16004 
     64000   3618.1083      596900.12      361.21093      597786.69      596887.66      596026        -359.14522     -766.46463     -5145.3759      7484.2383      7578.6327      15062.871      142424.95      41.449443      41.449443      82.898885          16004 
     65000   3591.6405      598680.58      367.89732      599445.52      599725.86      596870.35      289.31634      1360.3901     -2511.9564      7429.4884      7721.1945      15150.683      142350.1       41.44218       41.44218       82.88436           16004 
     66000   3578.7916      603558.19      374.5832       603433.43      603664.28      603576.85      1158.2154      208.02515     -3701.3865      7402.9097      7810.8834      15213.793      142175.87      41.425265      41.425265      82.85053           16004 
     67000   3622.754       595338.89      381.26913      597467.2       595085.38      593464.07      6345.2735     -509.53625     -1928.824       7493.8481      7729.9827      15223.831      142472.17      41.454023      41.454023      82.908045          16004 
     68000   3622.2298      598552.56      387.95755      600457.62      597255.96      597944.09     -867.96149      1165.6121     -2851.3501      7492.7638      7628.9499      15121.714      142348.3       41.442006      41.442006      82.884011          16004 
     69000   3593.1057      600449.55      394.64615      599737.17      599403.57      602207.9       2362.0368      1196.4324     -3643.5303      7432.5191      7762.9626      15195.482      142300.04      41.437321      41.437321      82.874643          16004 
     70000   3614.2561      597257.75      401.33352      598546.11      598326.75      594900.38      774.68503      3473.5062      775.4597       7476.2699      7600.1607      15076.431      142424.81      41.449429      41.449429      82.898857          16004 
     71000   3621.1292      599526.82      408.02121      598401.73      599473.87      600704.86      580.58964     -2031.3471      157.54182      7490.4872      7672.6045      15163.092      142332.85      41.440506      41.440506      82.881012          16004 
     72000   3609.5404      605656.18      414.71198      605536.66      604763.26      606668.61      3895.3316      997.47343      1096.1846      7466.5152      7744.7572      15211.272      142093.48      41.417262      41.417262      82.834525          16004 
     73000   3639.7984      597062.92      421.39879      596681.43      595397.81      599109.53     -1979.7313      777.70067      1076.8572      7529.1053      7676.5319      15205.637      142491.5       41.455897      41.455897      82.911794          16004 
     74000   3601.372       598916.44      428.08772      599779.99      597588.9       599380.41     -63.621445     -1004.3984      3291.7775      7449.6184      7700.1028      15149.721      142368.46      41.443962      41.443962      82.887924          16004 
     75000   3540.1601      603629.65      434.78023      603804.74      602616.96      604467.26      1726.4506     -1610.7479     -163.07756      7322.9985      7854.5376      15177.536      142211.58      41.428733      41.428733      82.857466          16004 
     76000   3571.5257      598494.99      441.47037      597433.91      597880.66      600170.4      -2502.8945      1833.8669      862.82052      7387.8799      7746.263       15134.143      142320         41.439259      41.439259      82.878518          16004 
     77000   3597.6215      598711.81      448.1619       598139.84      599342.38      598653.22      664.98166      31.022579     -1004.097       7441.8602      7708.9532      15150.813      142332.24      41.440447      41.440447      82.880895          16004 
     78000   3624.7036      607422.08      454.85318      608972.83      607844.12      605449.29     -526.35788     -1563.8439     -2627.9635      7497.881       7789.4363      15287.317      142049.57      41.412995      41.412995      82.82599           16004 
     79000   3625.9902      595908.18      461.54169      594412.77      597447.63      595864.14      2713.9315      3906.9959     -5151.653       7500.5423      7669.6619      15170.204      142502.73      41.456987      41.456987      82.913974          16004 
     80000   3580.0174      596833.72      468.22864      596312.28      597588.18      596600.71      1098.277       309.7169       577.69164      7405.4453      7682.077       15087.522      142370.84      41.444192      41.444192      82.888385          16004 
     81000   3565.3943      604406.89      474.91655      604510.26      603948.65      604761.75      919.0002       1839.2365      607.0898       7375.1967      7852.6005      15227.797      142159.76      41.423701      41.423701      82.847401          16004 
     82000   3610.1108      600942.01      481.60025      601718.09      600444.34      600663.62     -424.32561     -81.738396      242.19377      7467.695       7646.192       15113.887      142231.99      41.430715      41.430715      82.86143           16004 
     83000   3603.4613      595407.08      488.28409      598383.2       595034.56      592803.46      213.60588      1801.9126     -1349.8495      7453.9402      7637.3519      15091.292      142510.46      41.457737      41.457737      82.915473          16004 
     84000   3606.8852      601794.63      494.96824      601418.04      601586.17      602379.68      496.73741      2858.034       1307.1135      7461.0228      7657.9284      15118.951      142244.05      41.431886      41.431886      82.863772          16004 
     85000   3613.2321      599157.85      501.65089      598737.47      599732.65      599003.42     -1492.9122     -1789.278       16.112366      7474.1517      7779.4968      15253.649      142322.99      41.439549      41.439549      82.879098          16004 
     86000   3555.2533      597308.03      508.33531      598151.95      598669.44      595102.69     -1697.6338     -1120.3537     -236.53637      7354.2195      7690.3642      15044.584      142363.78      41.443507      41.443507      82.887015          16004 
     87000   3619.1359      604584.07      515.02028      605113.28      603766.47      604872.46      795.95277      51.51612      -1736.4998      7486.3639      7774.1194      15260.483      142231.59      41.430677      41.430677      82.861354          16004 
     88000   3570.5693      598797.9       521.70834      601490.12      598390.03      596513.54      1996.3815      596.39098      1940.8626      7385.9015      7800.8939      15186.795      142342.79      41.441471      41.441471      82.882942          16004 
     89000   3532.3586      593478.18      528.39731      594901.41      593058.28      592474.85     -3311.6228      1073.7552      581.44177      7306.8608      7595.0458      14901.907      142581.14      41.464588      41.464588      82.929177          16004 
     90000   3598.281       601416.55      535.08659      600992.26      601434.63      601822.74      2613.1322      5126.2992     -3573.155       7443.2246      7750.0088      15193.233      142254.81      41.432931      41.432931      82.865861          16004 
     91000   3564.0052      600573.11      541.77818      603143.24      598908.18      599667.9       568.56504     -1062.3922     -4023.9243      7372.3233      7721.4358      15093.759      142229.47      41.43047       41.43047       82.860941          16004 
     92000   3614.5494      597064.79      548.47065      597095.94      596423.51      597674.92     -1326.7829      3882.2225      1790.088       7476.8764      7690.9297      15167.806      142417.46      41.448716      41.448716      82.897432          16004 
     93000   3623.7668      600478.76      555.16333      598963.2       601954.74      600518.33      3948.5224     -850.70905      3795.4576      7495.9432      7673.7763      15169.72       142296.36      41.436964      41.436964      82.873929          16004 
     94000   3637.5768      604003.39      561.85669      604252.86      603553.68      604203.63      2257.5458     -492.58274     -823.07209      7524.5098      7724.8682      15249.378      142151.43      41.422892      41.422892      82.845783          16004 
     95000   3598.8797      600007.39      568.55082      598276.89      601936.82      599808.45     -416.4602       2282.0002      3733.9806      7444.4631      7665.0697      15109.533      142256.8       41.433124      41.433124      82.866248          16004 
     96000   3618.4136      594549.09      575.24196      592676.99      595520.44      595449.85     -704.9473       442.00395      1203.0687      7484.8698      7658.3749      15143.245      142607.29      41.467124      41.467124      82.934248          16004 
     97000   3585.2859      603356.33      581.93073      603075.56      604374.05      602619.39     -6150.8953      2526.2717     -543.54924      7416.3436      7721.6076      15137.951      142188.55      41.426497      41.426497      82.852994          16004 
     98000   3617.0336      601798.18      588.61979      601273.59      601646.16      602474.81     -951.41351     -4228.9925     -722.76567      7482.0153      7746.5439      15228.559      142309.91      41.43828       41.43828       82.87656           16004 
     99000   3644.2223      595743.36      595.30852      591633.84      597756.9       597839.33      522.03817     -1084.9677     -1404.698       7538.2565      7647.2439      15185.5        142514.69      41.458146      41.458146      82.916292          16004 
    100000   3569.7454      601251.09      602.00091      599795.7       600218.93      603738.65     -801.34307     -2651.5322     -2379.4929      7384.1973      7783.3137      15167.511      142262.93      41.433719      41.433719      82.867438          16004 
    101000   3627.9193      604019.56      608.68701      604059.22      602038.83      605960.63     -3405.2328     -1204.2433     -2459.215       7504.5328      7772.4695      15277.002      142179.63      41.425631      41.425631      82.851262          16004 
    102000   3621.7091      596710.57      615.37022      594696.81      598867.25      596567.64      2432.1824     -3587.3093     -1072.6209      7491.6866      7572.4889      15064.175      142432.43      41.450168      41.450168      82.900336          16004 
    103000   3601.3441      596809.84      622.05506      596125.78      596543.44      597760.32      955.89683      1033.3334     -1072.176       7449.5608      7683.2577      15132.819      142466.51      41.453474      41.453474      82.906948          16004 
    104000   3616.4642      605439.53      628.74244      606344.26      606804.37      603169.97     -3432.0714     -3163.1885      596.60971      7480.8373      7843.2709      15324.108      142136.64      41.421455      41.421455      82.84291           16004 
    105000   3606.1332      598837.14      635.42991      599297.01      601005.56      596208.85      237.78019      217.98231      3534.9434      7459.4671      7659.6602      15119.127      142343.14      41.441505      41.441505      82.883009          16004 
    106000   3590.1851      595152.45      642.11614      596795.99      594699.17      593962.18      1695.811       2228.9131     -796.77353      7426.4778      7575.7211      15002.199      142463.72      41.453204      41.453204      82.906407          16004 
    107000   3626.0627      601817.85      648.80516      603339.86      600157.88      601955.82     -3303.4419      1433.5646      2583.2027      7500.6924      7701.0697      15201.762      142231.47      41.430665      41.430665      82.86133           16004 
    108000   3592.1216      600716.84      655.49572      603716.07      599974.18      598460.26     -91.845337     -3034.0824     -2451.2336      7430.4834      7775.3996      15205.883      142311.9       41.438473      41.438473      82.876945          16004 
    109000   3614.2474      595941.3       662.18242      596182.81      595279.56      596361.53     -1820.0652      3598.7796      752.27597      7476.2519      7574.2663      15050.518      142439.82      41.450885      41.450885      82.90177           16004 
    110000   3587.8197      598408.91      668.87244      596573.72      599777.58      598875.44     -998.46001     -362.02025     -938.30899      7421.5849      7628.604       15050.189      142404.79      41.447486      41.447486      82.894972          16004 
    111000   3592.7123      606165.57      675.56362      605832.96      605621.29      607042.47      909.00083      488.75875      4817.2608      7431.7054      7838.6427      15270.348      142115.37      41.419389      41.419389      82.838777          16004 
    112000   3578.2412      603887.07      682.25212      604952.08      602186.8       604522.34     -325.89688     -831.00318     -1784.0979      7401.7711      7733.9805      15135.752      142160.15      41.423739      41.423739      82.847477          16004 
    113000   3631.5608      597327.14      688.94296      596531.65      597691.9       597757.87     -1578.2464     -4424.4537      360.65052      7512.0654      7725.7987      15237.864      142414.48      41.448426      41.448426      82.896853          16004 
    114000   3595.2057      603488.86      695.6342       604116.06      600940.94      605409.58     -4461.611       2668.705      -2120.0388      7436.8632      7723.4878      15160.351      142197.54      41.42737       41.42737       82.85474           16004 
    115000   3623.5635      598046.02      702.32127      597092.35      599137.03      597908.68     -87.825345      452.43069     -1228.6834      7495.5227      7611.285       15106.808      142359.05      41.443049      41.443049      82.886098          16004 
    116000   3616.2937      596126.29      709.00731      596817.9       595995.29      595565.68     -965.01211      2574.2183     -2546.346       7480.4847      7723.2505      15203.735      142471.35      41.453943      41.453943      82.907886          16004 
    117000   3649.4609      605355.37      715.69603      604846.9       602583.26      608635.94      1996.0515     -2260.6688     -2426.2149      7549.0926      7656.5105      15205.603      142102.92      41.418179      41.418179      82.836358          16004 
    118000   3576.4911      599695.22      722.38062      601480.62      598903.28      598701.76     -1531.2623     -2585.4314      2162.0838      7398.151       7703.4799      15101.631      142318.83      41.439145      41.439145      82.87829           16004 
    119000   3571.4299      597899.48      729.06748      598230.83      598716.28      596751.32      195.83919     -294.29884     -2973.5109      7387.6817      7738.3579      15126.04       142420.99      41.449058      41.449058      82.898116          16004 
    120000   3608.9906      601220.55      735.75688      602187.72      600773.8       600700.13     -427.24414      1188.7773     -1679.5336      7465.3778      7623.3453      15088.723      142210.42      41.428621      41.428621      82.857242          16004 
    121000   3611.4798      602304.55      742.44481      603044.34      600605.51      603263.8       2076.6951     -1445.067      -2448.2009      7470.5269      7741.4393      15211.966      142236.3       41.431134      41.431134      82.862267          16004 
    122000   3589.6601      597267.83      749.13298      599420.95      597020.15      595362.38      80.969876     -880.28831      1356.2131      7425.3919      7619.628       15045.02       142383.02      41.445374      41.445374      82.890748          16004 
    123000   3576.5832      595807.03      755.82113      597261.74      594719.51      595439.85      647.35852      196.92223     -212.70589      7398.3416      7632.26        15030.602      142399.48      41.446972      41.446972      82.893944          16004 
    124000   3582.8277      604841.99      762.51028      604018.27      605167.81      605339.91     -3484.0942     -4149.139      -4405.3259      7411.2586      7838.1362      15249.395      142120.65      41.419902      41.419902      82.839804          16004 
    125000   3568.2085      598227.52      769.19936      595452.93      598746.92      600482.72      1239.4595      1705.8132      4008.8264      7381.0181      7693.3574      15074.376      142371.41      41.444248      41.444248      82.888496          16004 
    126000   3635.3257      599310.38      775.88757      597619.36      601970.81      598340.96     -1561.2548      122.82232     -4251.6869      7519.8534      7636.4198      15156.273      142422.84      41.449238      41.449238      82.898475          16004 
    127000   3568.8593      602454.72      782.57248      603432.98      602192.91      601738.28      2145.0959     -3237.0568     -2144.1518      7382.3642      7657.0622      15039.426      142148.26      41.422584      41.422584      82.845168          16004 
    128000   3595.0314      600558.07      789.25799      598584.11      600406.4       602683.71     -2353.6399     -2605.238       330.02465      7436.5026      7711.8802      15148.383      142297.02      41.437029      41.437029      82.874058          16004 
    129000   3577.2864      595210.29      795.94418      592974.75      595415.04      597241.07     -3063.5933      1240.273      -80.478971      7399.796       7630.337       15030.133      142488.62      41.455618      41.455618      82.911236          16004 
    130000   3632.1176      600504.5       802.62932      601122.83      600951.41      599439.25      568.56234      1341.6584     -631.788        7513.2172      7824.4768      15337.694      142381.14      41.445192      41.445192      82.890385          16004 
    131000   3577.5676      607685.18      809.3114       609299.61      606934.11      606821.82     -1077.502       515.74719     -991.245        7400.3778      7785.2908      15185.669      142018.91      41.410015      41.410015      82.82003           16004 
    132000   3609.2256      598480.8       815.99598      598264.79      600265.04      596912.57     -2627.6339     -226.37432     -425.38619      7465.8641      7667.7365      15133.601      142396.73      41.446704      41.446704      82.893409          16004 
    133000   3580.3111      597697.13      822.68218      597744.69      598927.24      596419.48     -2414.5031     -2892.1879      1627.4474      7406.0528      7575.9537      14982.007      142355.14      41.442669      41.442669      82.885338          16004 
    134000   3599.8758      604659.72      829.36784      604389.13      606274.28      603315.74      2462.5812      1970.5292      408.67085      7446.5235      7744.3062      15190.83       142172.22      41.424911      41.424911      82.849822          16004 
    135000   3550.9545      604087.55      836.05504      605242.44      603004.12      604016.09     -4072.3192     -2628.6045     -2772.9785      7345.3273      7690.8661      15036.193      142146.98      41.422459      41.422459      82.844918          16004 
    136000   3596.1544      593507.08      842.74255      593484.04      593474.84      593562.34     -645.86228     -1082.8999      4827.9626      7438.8255      7634.9021      15073.728      142508.31      41.457527      41.457527      82.915054          16004 
    137000   3555.2221      604205.78      849.43126      604036.32      603651.47      604929.55     -1094.9997     -3711.1404      2512.8748      7354.155       7698.1         15052.255      142145.67      41.422332      41.422332      82.844664          16004 
    138000   3607.9489      599332.51      856.12146      597907.89      599955.26      600134.39     -2578.1911     -1626.759      -760.8744       7463.223       7699.9166      15163.14       142365.93      41.443716      41.443716      82.887432          16004 
    139000   3585.5824      595456.56      862.80753      595552.81      595167.92      595648.93      986.32978      3000.3122      6876.2272      7416.9569      7578.0478      14995.005      142441.77      41.451074      41.451074      82.902148          16004 
    140000   3616.8812      602591.21      869.49571      602600.97      602871         602301.65     -164.62966     -223.58941     -2501.6271      7481.7         7709.3459      15191.046      142216.14      41.429177      41.429177      82.858353          16004 
    141000   3586.4065      601999.78      876.18855      601910.19      602154.25      601934.9       7019.4639     -1786.4546      3546.2366      7418.6615      7669.6297      15088.291      142194.21      41.427046      41.427046      82.854092          16004 
    142000   3554.193       595602.15      882.87879      595706.36      596491.09      594609.02      1447.456      -89.967936     -1528.7265      7352.0263      7572.8394      14924.866      142460.92      41.452931      41.452931      82.905862          16004 
    143000   3624.5844      602081.21      889.5683       603295.82      601396         601551.81      2038.2812      1006.9453      4532.4506      7497.6345      7716.8551      15214.49       142266.6       41.434075      41.434075      82.86815           16004 
    144000   3581.9049      599604.7       896.25825      598958.5       599483.05      600372.55      1391.0777     -2170.2888     -4176.826       7409.3498      7839.7479      15249.098      142350.6       41.442228      41.442228      82.884456          16004 
    145000   3581.0264      595410.36      902.94609      593730.54      594316.74      598183.81     -1351.4905     -676.68763     -57.451001      7407.5325      7644.484       15052.017      142389.28      41.445982      41.445982      82.891964          16004 
    146000   3593.7013      602194.64      909.63382      601246.49      601798.66      603538.77      2988.1984     -3475.3894      2555.0119      7433.7512      7805.814       15239.565      142188.3       41.426472      41.426472      82.852945          16004 
    147000   3574.1869      603268.11      916.32209      604827.58      602135.25      602841.5      -2989.3434      2565.5759      1407.9006      7393.3847      7622.7869      15016.172      142123.71      41.420199      41.420199      82.840398          16004 
    148000   3575.5046      593733.18      923.00436      593852.41      592136.77      595210.37     -1774.242       83.707892      2841.0601      7396.1105      7674.3643      15070.475      142490.35      41.455786      41.455786      82.911572          16004 
    149000   3602.6537      601326.33      929.68622      599956.36      601112.81      602909.83      3839.2259      3583.4993      1088.1852      7452.2696      7655.0738      15107.343      142214.21      41.428989      41.428989      82.857977          16004 
    150000   3593.6015      604037.56      936.36839      603701.2       602754.06      605657.42     -2242.8091      2239.8481     -1255.4116      7433.5448      7641.3903      15074.935      142194.69      41.427094      41.427094      82.854187          16004 
    151000   3593.3514      596641.76      943.04926      596906.78      596742.9       596275.62     -58.742772     -1363.6067      3067.1303      7433.0275      7659.3933      15092.421      142500.04      41.456726      41.456726      82.913451          16004 
    152000   3600.0539      599421.07      949.73255      598362.08      601199.65      598701.49     -974.61255      5791.0105     -2878.7429      7446.8918      7689.5952      15136.487      142311.52      41.438435      41.438435      82.876871          16004 
    153000   3560.177       605883.2       956.42024      604341.34      606697.11      606611.14      763.78293      594.86585      4498.018       7364.4045      7614.4423      14978.847      142085         41.416438      41.416438      82.832877          16004 
    154000   3611.3954      596360.77      963.10626      594114.65      597478.28      597489.38      1308.5214     -1767.3251      55.848568      7470.3523      7659.0937      15129.446      142452.17      41.452083      41.452083      82.904166          16004 
    155000   3600.745       598855.22      969.79457      597306.05      599956.54      599303.08      3735.181      -783.86997     -4252.1026      7448.3213      7756.0038      15204.325      142352.91      41.442453      41.442453      82.884906          16004 
    156000   3579.8409      605491.56      976.48527      606196.03      605915.2       604363.44     -1477.4896      113.40037     -871.71544      7405.0804      7766.3411      15171.421      142102.87      41.418174      41.418174      82.836348          16004 
    157000   3598.7628      594774.61      983.1774       595453.48      595336.71      593533.64     -3241.6756      914.47454      3088.0393      7444.2212      7634.0131      15078.234      142500.02      41.456723      41.456723      82.913447          16004 
    158000   3602.0804      599080.55      989.87003      598874.08      601582.35      596785.23     -531.26341      4093.2728      1686.6096      7451.0839      7638.9412      15090.025      142391.48      41.446195      41.446195      82.89239           16004 
    159000   3591.9297      604009.33      996.56198      603996.7       604338.2       603693.08     -109.28629     -4602.0691      2141.266       7430.0866      7786.0076      15216.094      142170.56      41.42475       41.42475       82.849499          16004 
    160000   3553.9585      598414.39      1003.2511      600664.46      597448.85      597129.87     -885.61948      1132.395      -600.61982      7351.5411      7613.949       14965.49       142296.45      41.436973      41.436973      82.873947          16004 
    161000   3592.4444      599057.15      1009.9365      594862.02      601692.78      600616.65      1589.9938     -1478.2491     -734.42325      7431.1512      7699.7618      15130.913      142444.34      41.451323      41.451323      82.902646          16004 
    162000   3592.6282      603738.2       1016.6251      604914.82      604111.32      602188.46     -1913.3005     -4096.3548      240.01977      7431.5313      7687.414       15118.945      142198.37      41.427451      41.427451      82.854901          16004 
    163000   3657.7576      601851.79      1023.3118      601063.27      603419.37      601072.72     -714.74012      1125.9273      1237.9675      7566.2549      7679.8325      15246.087      142270.86      41.434489      41.434489      82.868978          16004 
    164000   3596.3871      593168.18      1029.9982      593493.93      593062.98      592947.63     -3107.9778     -3544.5195      343.83426      7439.3069      7582.1801      15021.487      142527.83      41.459421      41.459421      82.918841          16004 
    165000   3641.5856      602400.59      1036.6844      600078.95      600660.07      606462.76     -2403.2973      923.55884      3536.7363      7532.8023      7746.2124      15279.015      142279.37      41.435315      41.435315      82.87063           16004 
    166000   3587.6009      601534.94      1043.369       597847.38      603671.18      603086.27     -68.663669      3128.5329      2720.6954      7421.1323      7657.0916      15078.224      142257.14      41.433157      41.433157      82.866314          16004 
    167000   3607.7989      597012         1050.0546      597679.62      596749.11      596607.28     -272.61874      1408.1206     -1190.0493      7462.9128      7653.6381      15116.551      142441.79      41.451076      41.451076      82.902153          16004 
    168000   3576.6939      599069.79      1056.7391      601113.32      597373.96      598722.09      679.70875      1381.4483     -3755.4099      7398.5705      7601.9872      15000.558      142285.32      41.435893      41.435893      82.871785          16004 
    169000   3634.9921      604816.14      1063.423       605354.16      603201.05      605893.21     -700.5983       1545.8123      1397.9293      7519.1632      7685.2999      15204.463      142172.13      41.424902      41.424902      82.849804          16004 
    170000   3634.3285      592611.35      1070.1099      593482.2       592919.48      591432.38     -2713.9769     -2838.599      -1219.941       7517.7905      7650.0147      15167.805      142602.84      41.466692      41.466692      82.933384          16004 
    171000   3596.4611      596046.24      1076.7955      596494.16      597144.8       594499.76     -870.92246     -416.00291     -177.15808      7439.4599      7637.7405      15077.2        142451.57      41.452025      41.452025      82.90405           16004 
    172000   3560.9725      603455.33      1083.4839      605394.84      602198.8       602772.35      1169.479       2388.2283      3098.8845      7366.05        7617.7469      14983.797      142167.89      41.42449       41.42449       82.848981          16004 
    173000   3623.6794      600363.42      1090.1696      598106.05      600348.12      602636.08     -2673.2155     -6046.852       337.0157       7495.7624      7681.6866      15177.449      142318.37      41.439101      41.439101      82.878202          16004 
    174000   3574.5464      597199.13      1096.8539      599107.56      596125.55      596364.3       4009.2467     -554.88191      2871.7584      7394.1283      7702.1903      15096.319      142461.47      41.452985      41.452985      82.90597           16004 
    175000   3590.2921      603155.69      1103.5421      603278.48      603987.32      602201.27      17.645707      1071.3846     -3149.8581      7426.6991      7654.5368      15081.236      142201.47      41.427751      41.427751      82.855503          16004 
    176000   3645.9232      602792.75      1110.2286      601958.04      601006.82      605413.39     -1914.6017      1910.9248      352.23654      7541.7749      7767.3946      15309.17       142239.53      41.431447      41.431447      82.862894          16004 
    177000   3626.5075      594630.28      1116.9187      595488.58      592773.93      595628.32      2545.4314     -1198.4399     -998.31777      7501.6124      7608.1651      15109.777      142565.67      41.463089      41.463089      82.926179          16004 
    178000   3597.5632      600575.37      1123.6055      601390.19      599412.04      600923.89      814.64549     -895.52415     -3445.4898      7441.7397      7686.3457      15128.085      142294.8       41.436813      41.436813      82.873626          16004 
    179000   3636.0015      602357.17      1130.2943      604371.14      600947.41      601752.95     -760.59509     -682.14645      484.0743       7521.2514      7573.8399      15095.091      142164.32      41.424144      41.424144      82.848288          16004 
    180000   3594.0924      598374.95      1136.9823      596251.54      600597.44      598275.87     -41.365996      1745.9647      5050.2009      7434.5603      7642.8309      15077.391      142389.77      41.446029      41.446029      82.892058          16004 
    181000   3551.6326      600574.45      1143.6693      601188.5       599177.03      601357.81      1039.4444      2467.8304      1931.937       7346.73        7712.0515      15058.782      142265.13      41.433933      41.433933      82.867866          16004 
    182000   3631.7717      607921.86      1150.3564      610270.17      606142.05      607353.36     -2417.3195     -577.11655      449.41668      7512.5017      7768.537       15281.039      142072.57      41.41523       41.41523       82.83046           16004 
    183000   3612.2018      599255.86      1157.0409      597903.89      598110.05      601753.63     -3624.0921     -2142.8872      2521.3791      7472.0204      7701.8084      15173.829      142399.29      41.446953      41.446953      82.893906          16004 
    184000   3613.6375      599274.25      1163.7264      601037.34      595982.68      600802.73     -324.35876      1606.3391     -2438.1248      7474.9903      7564.1877      15039.178      142317.2       41.438987      41.438987      82.877974          16004 
    185000   3582.3985      601301.42      1170.4163      600966.3       602102.4       600835.56      1862.8119      957.38634     -636.63711      7410.3707      7818.2145      15228.585      142258.13      41.433253      41.433253      82.866506          16004 
    186000   3612.7971      600055.92      1177.1046      599694.22      598932.89      601540.66     -1550.7571     -3390.4479      492.46473      7473.2518      7634.2121      15107.464      142322.87      41.439538      41.439538      82.879076          16004 
    187000   3597.8382      587359.67      1183.7934      586236.27      588062.21      587780.52      682.60457     -2830.6423      670.4372       7442.3085      7561.9945      15004.303      142785.83      41.484422      41.484422      82.968844          16004 
    188000   3636.5866      605359.74      1190.4835      604326.25      606596.82      605156.14     -1954.6949     -5727.498       2059.2172      7522.4615      7767.4969      15289.958      142162.68      41.423985      41.423985      82.847969          16004 
    189000   3577.5223      600804.54      1197.1757      601031.63      600849.11      600532.88      1919.9467      1433.334       5854.1136      7400.2841      7726.5268      15126.811      142251.8       41.432639      41.432639      82.865277          16004 
    190000   3614.8751      592198.01      1203.8663      592868.69      590155.65      593569.7       315.58004     -191.91638      1965.4067      7477.5503      7620.6386      15098.189      142535.97      41.460209      41.460209      82.920418          16004 
    191000   3630.503       601344.29      1210.558       598932.89      604154.04      600945.95      212.15715      4808.8025      2070.3322      7509.8773      7655.5175      15165.395      142261.59      41.433589      41.433589      82.867177          16004 
    192000   3598.2835      601729.75      1217.2456      599608.49      602275.23      603305.52      518.75234     -5837.2848     -779.33179      7443.2296      7791.9397      15235.169      142289.47      41.436295      41.436295      82.87259           16004 
    193000   3593.2531      596868.04      1223.9336      596228.35      596045.44      598330.32     -1340.9135      1752.2381     -2843.7094      7432.824       7627.6368      15060.461      142356.64      41.442815      41.442815      82.88563           16004 
    194000   3607.0581      606476.82      1230.6209      605293.02      606808.39      607329.05     -4333.9837      3348.5788      1180.2731      7461.3804      7800.8645      15262.245      142116.16      41.419466      41.419466      82.838931          16004 
    195000   3575.1895      604093.12      1237.3079      604431.83      603625.18      604222.34     -1.264369      -128.98609      649.24664      7395.4585      7832.8561      15228.315      142175.15      41.425196      41.425196      82.850391          16004 
    196000   3574.5729      595939.76      1243.9918      597952.9       595345.26      594521.12     -4277.0691     -702.13827     -2162.5515      7394.1832      7627.9944      15022.178      142406.58      41.447661      41.447661      82.895321          16004 
    197000   3612.4885      601817.86      1250.6773      598728.33      603135.54      603589.71      4686.3781      1745.7928     -1492.0799      7472.6134      7751.7677      15224.381      142293.02      41.43664       41.43664       82.873281          16004 
    198000   3610.9681      601413.77      1257.3634      602249.38      601612.82      600379.12      3348.4441      1750.1961     -331.25482      7469.4683      7713.4884      15182.957      142235.82      41.431088      41.431088      82.862175          16004 
    199000   3599.4468      598354.24      1264.0493      597228.77      599987.17      597846.79     -1754.0422     -690.22431      83.257115      7445.636       7603.4972      15049.133      142342.36      41.441429      41.441429      82.882857          16004 
    200000   3614.9383      597126.85      1270.7414      595395.88      596704.18      599280.5      -613.84814     -2602.4598     -3128.2452      7477.681       7679.5226      15157.204      142381.32      41.44521       41.44521       82.890419          16004 
    201000   3580.6883      613329.2       1277.4306      613391.3       615939         610657.3      -714.1663       1171.3909      2208.9346      7406.8331      7844.6389      15251.472      141826.46      41.391302      41.391302      82.782604          16004 
    202000   3610.828       597528.75      1284.1207      595773.62      597477.32      599335.32      1375.4907      76.910401     -1280.1694      7469.1787      7614.7159      15083.895      142423.63      41.449314      41.449314      82.898629          16004 
    203000   3583.7078      597334.1       1290.8117      596545.44      597831.62      597625.24      1189.8196     -599.3154       3130.5977      7413.0791      7678.4067      15091.486      142342.77      41.441469      41.441469      82.882938          16004 
    204000   3630.5706      602295.48      1297.5025      602582.91      600825.59      603477.94     -1002.444       759.63341      1691.4683      7510.0173      7712.5362      15222.553      142271.41      41.434543      41.434543      82.869086          16004 
    205000   3602.1004      601957         1304.1898      599961.89      602291         603618.11      2042.1653      2106.0717      6008.0797      7451.1252      7685.1836      15136.309      142230.31      41.430552      41.430552      82.861104          16004 
    206000   3584.5989      597733.92      1310.8822      596139.39      596368.42      600693.93     -827.72358     -2237.883      -2425.02        7414.9225      7721.346       15136.269      142452.61      41.452125      41.452125      82.904251          16004 
    207000   3622.3066      605604.31      1317.5745      604488.67      607701.18      604623.08     -1417.3927     -1404.0322      304.88272      7492.9227      7670.9202      15163.843      142060.8       41.414087      41.414087      82.828173          16004 
    208000   3622.0857      603469.56      1324.2651      601228.83      603628.32      605551.53     -498.71979     -1042.5618      3546.1358      7492.4657      7727.7229      15220.189      142170.23      41.424718      41.424718      82.849436          16004 
    209000   3568.8591      597599.97      1330.9537      598473.21      596273.35      598053.35     -1434.6517      3208.5129     -1628.1913      7382.3638      7650.9831      15033.347      142374.75      41.444573      41.444573      82.889145          16004 
    210000   3591.2136      603710.7       1337.6438      603320.23      603190.06      604621.82     -2957.1783      400.13065     -713.50894      7428.6052      7731.0483      15159.654      142165.07      41.424217      41.424217      82.848433          16004 
    211000   3610.805       600657.03      1344.3333      600424.75      602333.82      599212.53      2.5466297     -4747.0894      753.27054      7469.1311      7688.7236      15157.855      142280.61      41.435435      41.435435      82.87087           16004 
    212000   3576.1494      595543.55      1351.0181      594397.19      596888.87      595344.58      76.818622      1925.6972      1860.0097      7397.4443      7510.8049      14908.249      142445.01      41.451389      41.451389      82.902777          16004 
    213000   3600.6293      602144.88      1357.7034      602601.85      602000.81      601831.98      2743.6368     -496.87826     -1125.491       7448.0822      7717.9939      15166.076      142212.11      41.428785      41.428785      82.85757           16004 
    214000   3623.6405      604840.93      1364.3878      605934.06      604179.62      604409.12      1488.2096     -4379.4794     -3215.0655      7495.682       7709.6121      15205.294      142179.01      41.42557       41.42557       82.851141          16004 
    215000   3604.8691      589569.87      1371.0725      589667.16      589238.77      589803.68     -4219.4602     -483.32818      2616.4858      7456.8524      7573.0063      15029.859      142620.9       41.468442      41.468442      82.936884          16004 
    216000   3557.6629      605762.64      1377.7574      606077.24      605623.34      605587.33      1894.0299     -4321.3878      1710.334       7359.2039      7702.1944      15061.398      142077.74      41.415733      41.415733      82.831466          16004 
    217000   3604.1647      600532.76      1384.4397      600694         598583.12      602321.14      1709.7451     -3.5255458     -1279.0001      7455.3952      7692.2438      15147.639      142296.3       41.436958      41.436958      82.873917          16004 
    218000   3578.7693      598598.58      1391.1243      599672.92      596986.71      599136.1       1539.9318     -2823.469       4692.2672      7402.8635      7636.5002      15039.364      142340.94      41.441291      41.441291      82.882582          16004 
    219000   3643.65        602024.92      1397.8136      600214.39      602691.68      603168.69     -651.72195      865.64006     -4914.3663      7537.0726      7689.7663      15226.839      142290.37      41.436383      41.436383      82.872766          16004 
    220000   3599.1415      598502.16      1404.501       597804.64      599080.79      598621.06      1326.4466      1297.6642      1087.9195      7445.0045      7613.0355      15058.04       142377.91      41.444878      41.444878      82.889757          16004 
    221000   3606.8417      598796.3       1411.1891      599517.69      597557.53      599313.66     -3428.0399     -5107.3973     -396.22732      7460.9328      7667.0997      15128.033      142419.48      41.448912      41.448912      82.897823          16004 
    222000   3610.3715      603710.57      1417.8798      603889.62      604811.09      602431         2229.6536      4604.3775      2652.0563      7468.2344      7721.9799      15190.214      142240.24      41.431516      41.431516      82.863033          16004 
    223000   3566.4218      602134.9       1424.572       601104.58      601064.3       604235.81      1391.7255      255.77227      1117.3358      7377.3222      7775.0086      15152.331      142244.31      41.431911      41.431911      82.863822          16004 
    224000   3606.4167      592717.51      1431.266       593734.93      592852.39      591565.2       6331.9955      1290.2239      1376.9823      7460.0536      7591.2626      15051.316      142626.97      41.469031      41.469031      82.938061          16004 
    225000   3559.1485      600468.15      1437.9606      602401.31      597552.35      601450.78     -332.28834      3514.8019      18.687449      7362.2769      7587.8495      14950.126      142183.44      41.426001      41.426001      82.852001          16004 
    226000   3602.1457      600141.3       1444.6509      599755.13      601704.9       598963.85     -878.886       -3508.9123     -1762.8454      7451.2188      7750.3803      15201.599      142249.83      41.432447      41.432447      82.864894          16004 
    227000   3631.2787      597785.54      1451.3398      595746.57      598600.25      599009.81      127.79457      2109.8637      4006.0977      7511.4819      7606.4157      15117.898      142473.73      41.454174      41.454174      82.908348          16004 
    228000   3611.028       600382.37      1458.0287      602296.34      597661.55      601189.23     -2666.766      -944.84651      2370.4915      7469.5924      7656.0547      15125.647      142315.43      41.438815      41.438815      82.877631          16004 
    229000   3576.4673      604108.3       1464.7145      605107.76      602355.41      604861.72     -1440.5836      950.79044     -974.00748      7398.1017      7771.397       15169.499      142146.88      41.42245       41.42245       82.844899          16004 
    230000   3565.6189      592996.49      1471.4022      593188.63      591070.88      594729.95      2279.1003      1725.6894     -5976.8399      7375.6614      7504.3863      14880.048      142533.78      41.459998      41.459998      82.919995          16004 
    231000   3583.4426      600597.32      1478.0873      602598.12      601324.13      597869.7       340.47434     -221.90778      845.3363       7412.5306      7780.2023      15192.733      142329.4       41.440171      41.440171      82.880342          16004 
    232000   3616.9727      603174.01      1484.7737      603642.75      603395.52      602483.74     -2358.748      -2498.2196     -4296.9002      7481.8893      7776.5639      15258.453      142226.99      41.43023       41.43023       82.86046           16004 
    233000   3579.9768      600089.59      1491.461       599742.69      602003.26      598522.82      2493.9043     -2959.6165     -266.88833      7405.3613      7699.4288      15104.79       142291.86      41.436528      41.436528      82.873056          16004 
    234000   3583.5105      601314.26      1498.1482      602181.16      601293.6       600468.01      1672.1598      1430.3928     -3452.7384      7412.6711      7721.2769      15133.948      142270.37      41.434441      41.434441      82.868882          16004 
    235000   3561.0419      602110.92      1504.8343      600702.18      603223.3       602407.28     -1632.236       2476.6394     -577.01122      7366.1936      7801.9936      15168.187      142220.53      41.429603      41.429603      82.859206          16004 
    236000   3575.6556      595623.09      1511.5194      595080.84      595249.69      596538.76     -1703.8601     -2234.2416     -884.88918      7396.4228      7552.8238      14949.247      142498.79      41.456605      41.456605      82.91321           16004 
    237000   3617.0024      598561.36      1518.2069      596864.05      598352.43      600467.6       2260.8265      3501.8748      1744.9897      7481.9506      7611.4406      15093.391      142326.1       41.439851      41.439851      82.879701          16004 
    238000   3597.2489      603590.28      1524.8966      605993.48      601721.89      603055.49      1098.7763      1992.6813      1713.5949      7441.0895      7753.7186      15194.808      142157.78      41.423508      41.423508      82.847016          16004 
    239000   3615.4957      598119.31      1531.5847      598498.76      597476.01      598383.17     -421.74602     -403.34575     -1336.5338      7478.8339      7671.6158      15150.45       142450.38      41.45191       41.45191       82.903819          16004 
    240000   3567.1223      596964.52      1538.2732      596643.11      598394.59      595855.86      1304.6663      1997.167      -2599.8547      7378.7712      7675.2782      15054.049      142379.74      41.445056      41.445056      82.890112          16004 
    241000   3607.4689      603002.08      1544.9641      601545.21      603409.24      604051.79     -2425.5667     -1017.1807      1525.9806      7462.2303      7806.8609      15269.091      142176.05      41.425283      41.425283      82.850566          16004 
    242000   3580.9082      597223.17      1551.6545      599830.94      597568.37      594270.2       999.2669      -1754.5821      1241.0351      7407.288       7763.144       15170.432      142391.45      41.446193      41.446193      82.892386          16004 
    243000   3576.2143      594464.53      1558.3442      593944.85      595354.17      594094.59     -1490.4244      4407.1833     -1315.8476      7397.5785      7597.5474      14995.126      142507.54      41.457453      41.457453      82.914905          16004 
    244000   3613.9503      603655.88      1565.0344      601750.83      604131.48      605085.32      883.36096      1412.9111      1631.7179      7475.6372      7756.9076      15232.545      142201.44      41.427749      41.427749      82.855498          16004 
    245000   3606.8584      600932.62      1571.7232      600527.76      600641.59      601628.51     -4170.7077     -1755.729       1087.0302      7460.9673      7645.2263      15106.194      142298.62      41.437184      41.437184      82.874367          16004 
    246000   3570.3885      597332.09      1578.4089      598901.55      597634.49      595460.23      41.035689     -2276.3914     -2310.8776      7385.5275      7661.7569      15047.284      142400.1       41.447032      41.447032      82.894063          16004 
    247000   3657.0771      601352.77      1585.0942      603031.77      600367.29      600659.26     -480.78032      3536.1158      632.59176      7564.8472      7701.5787      15266.426      142277.57      41.435141      41.435141      82.870281          16004 
    248000   3602.8016      595986.5       1591.7802      597578.44      594996.17      595384.91     -787.24441     -2429.7657     -2940.5963      7452.5755      7604.921       15057.496      142451.2       41.451989      41.451989      82.903977          16004 
    249000   3626.7262      596242.87      1598.4647      597620.29      595152.18      595956.14      594.43438     -3200.0686      4649.785       7502.0648      7659.0432      15161.108      142424.85      41.449433      41.449433      82.898866          16004 
    250000   3612.3708      607536.61      1605.1525      609187.1       606565.64      606857.09      114.68626      2873.0177     -1402.8252      7472.37        7747.7563      15220.126      141990.13      41.407218      41.407218      82.814436          16004 
    251000   3567.7099      595981.98      1611.8427      596750.53      596628.5       594566.9       238.27556      3022.2377     -2146.5428      7379.9867      7681.8863      15061.873      142429.29      41.449864      41.449864      82.899727          16004 
    252000   3616.6302      598245.76      1618.5312      599406.46      597737.45      597593.37     -1805.3218     -1761.9485      114.75164      7481.1808      7725.5636      15206.744      142358.71      41.443015      41.443015      82.886031          16004 
    253000   3588.216       599947.86      1625.2233      601157.18      599069.75      599616.64     -954.2955       3114.5863     -344.37024      7422.4046      7682.8068      15105.211      142266.44      41.43406       41.43406       82.868119          16004 
    254000   3637.3092      597652.09      1631.9165      596864.73      599289.55      596801.99     -1131.3355     -594.18092     -1271.4079      7523.9564      7776.7974      15300.754      142440.11      41.450913      41.450913      82.901826          16004 
    255000   3615.2886      607595.08      1638.6074      607505.13      608256.61      607023.51     -976.14665     -2417.699       2258.6186      7478.4056      7750.8572      15229.263      142050.73      41.413108      41.413108      82.826216          16004 
    256000   3611.1091      598059.77      1645.2985      597690.54      597375.63      599113.16     -2003.912       4195.8306      3113.8831      7469.7602      7637.4105      15107.171      142380.73      41.445152      41.445152      82.890304          16004 
    257000   3634.1074      597062.21      1651.9895      598250.07      595844.05      597092.52      1229.8878     -4103.7438      2757.2203      7517.3332      7680.0469      15197.38       142441.8       41.451077      41.451077      82.902154          16004 
    258000   3611.4834      602338.8       1658.6742      602984.18      599960.43      604071.78     -2343.6023     -554.88634      1973.7616      7470.5344      7721.3134      15191.848      142221.85      41.429731      41.429731      82.859462          16004 
    259000   3619.9414      602083.1       1665.3624      602249.3       600145.27      603854.75     -646.71157      3161.5756     -1053.9011      7488.0302      7652.4402      15140.47       142225.47      41.430082      41.430082      82.860164          16004 
    260000   3613.986       590802.46      1672.0466      590602.95      592040.09      589764.35     -9.4188814     -114.03565      4454.0985      7475.7111      7641.5186      15117.23       142651.34      41.471393      41.471393      82.942786          16004 
    261000   3616.2667      602441.33      1678.7289      601324.29      601333.79      604665.92     -247.51996     -2074.6975      1506.4326      7480.4289      7691.7956      15172.224      142189.65      41.426603      41.426603      82.853207          16004 
    262000   3571.5149      603176.84      1685.4123      601271.43      605280.56      602978.53      1130.3309      583.59153     -4505.9323      7387.8575      7761.605       15149.463      142251.83      41.432641      41.432641      82.865282          16004 
    263000   3616.0322      597042.94      1692.0968      598326.36      595998.16      596804.29      2806.8771     -357.28631     -2215.9415      7479.9439      7686.7835      15166.727      142442.44      41.451139      41.451139      82.902279          16004 
    264000   3594.2889      597110.61      1698.7791      597116.49      598691.85      595523.5      -3786.8845     -5643.3343     -647.65973      7434.9667      7617.5006      15052.467      142383.01      41.445374      41.445374      82.890747          16004 
    265000   3653.4035      605607.49      1705.466       604549.54      604589.83      607683.1      -1550.1186     -1123.9842     -6605.1883      7557.2481      7797.443       15354.691      142145.73      41.422338      41.422338      82.844676          16004 
    266000   3614.0861      599304.47      1712.1533      600819.56      599541.83      597552.01     -2485.6495      3298.9615      948.93935      7475.9182      7693.7481      15169.666      142352.03      41.442367      41.442367      82.884734          16004 
    267000   3581.6129      590307.55      1718.8408      589059.88      591786.39      590076.37     -1525.5685      1362.3793      367.42624      7408.7457      7484.1115      14892.857      142600.47      41.466463      41.466463      82.932926          16004 
    268000   3566.8413      606561.24      1725.5353      605829.66      605955.35      607898.71     -2049.9999     -2704.6227     -2234.9154      7378.19        7837.1929      15215.383      142074.49      41.415417      41.415417      82.830834          16004 
    269000   3618.0811      601714.47      1732.2223      601228.1       602653.15      601262.16     -5016.8823     -1552.1403      564.09533      7484.1821      7713.0737      15197.256      142270.92      41.434495      41.434495      82.868989          16004 
    270000   3567.2189      595930         1738.914       595982.55      596585.43      595222.02      282.36932     -1314.2709     -1248.8996      7378.9709      7659.993       15038.964      142399.4       41.446964      41.446964      82.893928          16004 
    271000   3598.0165      604100.21      1745.6063      605488.98      603343.35      603468.3      -765.9986      -2747.3297     -1765.9092      7442.6774      7777.8108      15220.488      142143.33      41.422105      41.422105      82.84421           16004 
    272000   3593.5331      600765.04      1752.2992      601654.72      601508.81      599131.57     -1468.1775     -8.3695365      240.32859      7433.4032      7637.5033      15070.907      142259.12      41.43335       41.43335       82.866699          16004 
    273000   3603.2342      598584.28      1758.9906      598201.96      599227.33      598323.56      2401.5358     -2419.3699     -1492.9735      7453.4704      7708.7838      15162.254      142414.68      41.448447      41.448447      82.896893          16004 
    274000   3577.0069      603099.27      1765.6816      604833.1       602004.96      602459.75     -4885.5485      1741.3044     -1154.6347      7399.2179      7638.2942      15037.512      142183.55      41.426011      41.426011      82.852022          16004 
    275000   3592.4307      601812.99      1772.3731      602257.48      599969.28      603212.2       16.692725      934.15251      2970.0812      7431.1229      7706.7331      15137.856      142319.42      41.439202      41.439202      82.878405          16004 
    276000   3573.0148      598108.17      1779.0623      597774.56      596858.98      599690.98     -4410.816      -159.19771     -2879.5879      7390.9601      7718.7742      15109.734      142387.3       41.445789      41.445789      82.891579          16004 
    277000   3615.6265      598043.57      1785.751       599139.15      596566.06      598425.52     -589.90321     -568.60274      549.08948      7479.1047      7591.2387      15070.343      142402.31      41.447246      41.447246      82.894493          16004 
    278000   3594.985       606359.84      1792.4393      607973.51      604861         606245.02      27.454642      517.27567     -2697.5645      7436.4065      7770.4888      15206.895      142118.13      41.419657      41.419657      82.839314          16004 
    279000   3569.7568      597154.5       1799.1217      597354.86      596058.11      598050.52     -4914.0168      3495.944      -2924.9371      7384.2207      7712.369       15096.59       142406.93      41.447694      41.447694      82.895388          16004 
    280000   3663.0554      597525.54      1805.8049      600354.66      596599.32      595622.65      1313.7143     -2683.2323     -2196.9178      7577.2136      7646.6881      15223.902      142407.99      41.447797      41.447797      82.895594          16004 
    281000   3582.2518      600960.74      1812.4887      602304.06      600451.66      600126.49      1439.1897     -194.12518      1129.7605      7410.0673      7690.0404      15100.108      142215.12      41.429077      41.429077      82.858155          16004 
    282000   3579.7039      601880.18      1819.1728      603502.88      601181.56      600956.11      3507.3404      440.65616      2273.4787      7404.7968      7730.5045      15135.301      142251.99      41.432657      41.432657      82.865314          16004 
    283000   3601.4057      596387.82      1825.8557      598907.98      595889         594366.47      341.20049      189.81755     -1061.6968      7449.6882      7693.7381      15143.426      142445.67      41.451453      41.451453      82.902905          16004 
    284000   3584.5978      603772.68      1832.5411      603093.42      603001.95      605222.68     -1044.0223      2243.86        3006.4232      7414.9201      7690.6104      15105.531      142141.23      41.421901      41.421901      82.843802          16004 
    285000   3621.9345      604276         1839.229       601934.72      604049.52      606843.77     -3090.8381     -394.65162      1197.3583      7492.1529      7721.2989      15213.452      142156.27      41.423362      41.423362      82.846723          16004 
    286000   3622.9179      594340.02      1845.9185      595076.46      596320.94      591622.66     -3562.2572      4950.5349      2995.7048      7494.1871      7511.5768      15005.764      142499.4       41.456664      41.456664      82.913328          16004 
[...]
   3930000   3636.2924      593843.73      6900.3263      596709.06      594827.83      589994.29     -2875.4986      3269.0081     -888.85419      7521.853       14959.912      22481.765      141021.19      41.433304      41.433304      82.145777          16004 
   3931000   3604.9291      593107.17      6907.7487      591027.48      595119.37      593174.66      1664.0809     -3250.5761     -1770.5089      7456.9764      15028.283      22485.259      141011.25      41.43233       41.43233       82.143848          16004 
   3932000   3590.6879      596813.28      6915.1829      595884.84      598757.25      595797.76      2614.6456     -7889.2509     -5770.7041      7427.5178      15107.734      22535.251      140877.3       41.419207      41.419207      82.117828          16004 
   3933000   3631.9783      605332.44      6922.6027      605293.45      604089.63      606614.22      766.97757     -2573.9758     -4171.6219      7512.929       15171.975      22684.904      140477.74      41.380012      41.380012      82.04012           16004 
   3934000   3603.5146      601859.75      6930.0431      598706.25      602679.8       604193.19      3167.0217      2848.0746      6653.7215      7454.0505      15128.669      22582.72       140751.24      41.406849      41.406849      82.093328          16004 
   3935000   3608.187       606363.43      6937.4741      608322.96      608278.22      602489.1      -1528.146       6013.9127     -472.54819      7463.7156      15187.31       22651.025      140567.5       41.388824      41.388824      82.057591          16004 
   3936000   3597.2226      596414.76      6944.922       596506.36      597030.63      595707.29      1255.0756      5282.1911     -2358.6688      7441.0353      15053.483      22494.518      140984.1       41.429671      41.429671      82.138576          16004 
   3937000   3589.311       596349.57      6952.3629      592807.35      598680.99      597560.36     -985.82973     -2583.2384      7552.7071      7424.6696      15088.771      22513.441      140931.54      41.424522      41.424522      82.128366          16004 
   3938000   3579.6884      601314.28      6959.8073      600138.74      605918.25      597885.86      476.037        1708.9802     -1358.5936      7404.7647      15173.836      22578.601      140753.35      41.407056      41.407056      82.093739          16004 
   3939000   3594.5877      604108.2       6967.2611      605462.13      603447.83      603414.65      1061.0875      2078.8131      657.44844      7435.5847      15210.622      22646.207      140567.64      41.388837      41.388837      82.057618          16004 
   3940000   3619.4152      601144.44      6974.7015      600791.2       603410.71      599231.42      4886.8535     -1632.3775      7089.5101      7486.9417      15120.514      22607.455      140670.41      41.398921      41.398921      82.077611          16004 
   3941000   3629.3142      603585.14      6982.143       602054.67      604084.86      604615.9      -1980.7492      1846.8351     -5405.7684      7507.4183      15148.477      22655.895      140538.75      41.386001      41.386001      82.051995          16004 
   3942000   3608.5802      607742.81      6989.5795      608987.94      606325.96      607914.52     -1793.19       -2107.485      -3395.7545      7464.5289      15262.976      22727.505      140347.1       41.367181      41.367181      82.014682          16004 
   3943000   3589.2904      603393.32      6997.0013      603224.19      604154.71      602801.07     -895.001       -4666.6016     -8416.9594      7424.6271      15241.494      22666.121      140508.5       41.383032      41.383032      82.046108          16004 
   3944000   3607.7533      599807.48      7004.4249      602087.53      598955.47      598379.43      4912.2919      876.75735      1638.8161      7462.8184      15087.969      22550.787      140814.77      41.413078      41.413078      82.105678          16004 
   3945000   3597.5729      602414.97      7011.8697      603432.83      600829.73      602982.36      5602.5517     -402.2724       442.71161      7441.7599      15212.164      22653.924      140535.61      41.385693      41.385693      82.051384          16004 
   3946000   3598.1209      596989.26      7019.2919      595944.5       599623.18      595400.09      256.25882      2329.8915      892.70423      7442.8933      15108.629      22551.523      140809.53      41.412564      41.412564      82.104659          16004 
   3947000   3594.0364      600818.75      7026.7233      600764.5       602662.35      599029.41      273.67007      2030.476       743.84495      7434.4443      15151.91       22586.354      140715.43      41.403338      41.403338      82.086366          16004 
   3948000   3608.5028      602108.36      7034.1577      605224.57      601723.11      599377.39      2787.186      -1909.2523      525.28291      7464.3689      15176.363      22640.732      140567.83      41.388856      41.388856      82.057655          16004 
   3949000   3588.6608      601920.51      7041.5932      602706.68      600104.65      602950.21     -2770.2292      448.13333      1151.2976      7423.3246      15179.457      22602.782      140666.57      41.398544      41.398544      82.076863          16004 
   3950000   3579.1656      601239.55      7049.0208      600033.86      607751.63      595933.15      104.93305     -114.67449      2705.45        7403.6833      15196.888      22600.571      140671.5       41.399028      41.399028      82.077823          16004 
   3951000   3627.8393      601421.52      7056.4506      599838.19      603035.17      601391.2       1374.5875     -2160.833       2142.504       7504.3674      15091.396      22595.764      140681.86      41.400045      41.400045      82.079838          16004 
   3952000   3585.4089      592405.19      7063.8853      591117.98      593800.99      592296.61      1848.8519      3226.7162     -332.28921      7416.5979      15068.106      22484.704      140980.25      41.429294      41.429294      82.137828          16004 
   3953000   3601.0829      598693.95      7071.3095      598522.13      597870.04      599689.68     -2800.8638     -557.90837      1359.0177      7449.0204      15123.154      22572.175      140742         41.405943      41.405943      82.091532          16004 
   3954000   3605.7016      602099.3       7078.7394      601009.62      602552.69      602735.59     -1473.324      -3197.089      -913.87603      7458.5744      15109.168      22567.743      140753.23      41.407044      41.407044      82.093714          16004 
   3955000   3627.7016      598798.33      7086.1855      596972.59      599951.63      599470.77     -3491.4928      234.86485      2378.4513      7504.0824      15053.275      22557.357      140780.3       41.409698      41.409698      82.098977          16004 
   3956000   3617.3062      602539.52      7093.6286      602558.69      599901.34      605158.54      1711.9297      5263.9961     -4152.1323      7482.5791      15100.295      22582.874      140710.96      41.402899      41.402899      82.085497          16004 
   3957000   3625.6609      599273.55      7101.0633      600165.93      600176.79      597477.94      3153.452      -5926.9889     -101.87737      7499.8613      15096.647      22596.508      140672.32      41.399108      41.399108      82.077982          16004 
   3958000   3630.1891      596846.23      7108.5047      596845.48      596791.77      596901.44      2992.4483     -896.1396       5258.231       7509.228       15029.232      22538.46       140828.9       41.414463      41.414463      82.108423          16004 
   3959000   3614.9564      599083.59      7115.9468      596215.06      601273.38      599762.33     -2629.388       474.57181      5043.9763      7477.7185      15083.283      22561.002      140767.68      41.408461      41.408461      82.096524          16004 
   3960000   3639.816       594235.23      7123.3811      592609.55      594650.71      595445.42     -2182.5467     -654.98196     -1265.5379      7529.1417      14970.302      22499.443      140931.29      41.424498      41.424498      82.128319          16004 
   3961000   3637.2499      596327.85      7130.8262      598098.18      595106.15      595779.23      3065.7616      4540.1146     -2613.1603      7523.8336      14973.988      22497.822      140934.25      41.424787      41.424787      82.128893          16004 
   3962000   3650.1399      600241.23      7138.2579      603251.17      599400.38      598072.15      1265.5289      615.86625      5739.2795      7550.4973      15013.592      22564.089      140755.4       41.407257      41.407257      82.094136          16004 
   3963000   3633.4918      597939.99      7145.6968      596358.67      598330         599131.32     -1587.5688     -464.73398     -78.813158      7516.0598      15021.78       22537.84       140823.75      41.413958      41.413958      82.107423          16004 
   3964000   3605.7156      602640.1       7153.1387      604902.09      604611.75      598406.46     -443.00686      3466.6667     -1965.6793      7458.6033      15166.123      22624.727      140591.23      41.391153      41.391153      82.062209          16004 
   3965000   3596.2615      599528.91      7160.5729      603122.92      596764         598699.82     -1709.696       5429.8108      2662.6581      7439.0471      15121.803      22560.85       140761.48      41.407853      41.407853      82.095318          16004 
   3966000   3614.6016      600939.12      7168.01        600529.55      604087.84      598199.97      2150.7495     -4015.6815     -3880.1397      7476.9844      15142.139      22619.124      140605.81      41.392583      41.392583      82.065044          16004 
   3967000   3621.8705      604198.16      7175.4407      606032.31      601287.7       605274.46      3047.3793      5136.9885     -506.26124      7492.0207      15159.374      22651.394      140519.08      41.384071      41.384071      82.048168          16004 
   3968000   3584.6818      599500.75      7182.8698      599809.89      601229.2       597463.15      641.51512      2057.1493     -1928.213       7415.0938      15187.876      22602.97       140646.79      41.396604      41.396604      82.073016          16004 
   3969000   3573.5471      600215.17      7190.2977      601656.98      598190.39      600798.12     -2702.6772     -4458.4688     -74.578731      7392.0613      15177.858      22569.919      140736.97      41.40545       41.40545       82.090554          16004 
   3970000   3588.6697      593859.05      7197.7316      595285.53      594942.74      591348.9      -662.86292     -5318.4102      1044.2838      7423.3431      15071.552      22494.895      140937.63      41.425119      41.425119      82.12955           16004 
   3971000   3637.184       593505.13      7205.1674      592824.03      593035.31      594656.06      1726.7979      1640.6139     -3947.5206      7523.6974      14969.591      22493.289      140940.12      41.425362      41.425362      82.130033          16004 
   3972000   3602.8412      601372.42      7212.597       598880.71      602512.38      602724.17      417.43458      836.15561      4761.7768      7452.6575      15109.912      22562.57       140753.18      41.407039      41.407039      82.093705          16004 
   3973000   3620.2655      600925.31      7220.0312      597289.7       603391.11      602095.14     -1021.8234     -4538.0656     -6691.9141      7488.7005      15120.567      22609.268      140627.01      41.394664      41.394664      82.069169          16004 
   3974000   3614.6981      597558.62      7227.468       594348.05      599061.91      599265.91     -717.34734     -4179.7166      8241.3323      7477.1842      15000.054      22477.238      140977.01      41.428976      41.428976      82.137197          16004 
   3975000   3615.7752      596437.92      7234.9066      597476.44      598108.28      593729.02     -1173.779      -2956.3363      1754.5151      7479.4122      15057.842      22537.255      140818.66      41.413459      41.413459      82.106434          16004 
   3976000   3625.7817      601378.33      7242.3456      599977.82      600980.86      603176.32     -1177.3978      4972.8648      1861.5489      7500.111       15082.159      22582.27       140697.94      41.401622      41.401622      82.082965          16004 
   3977000   3574.6657      604046.08      7249.7789      602675.69      607017.31      602445.23      2465.1872     -747.70408      457.97104      7394.3752      15240.533      22634.909      140558.88      41.387977      41.387977      82.055912          16004 
   3978000   3585.5293      602959.43      7257.2197      605181.09      602492.93      601204.27      629.96918     -4368.5523     -7582.6774      7416.8469      15219.312      22636.159      140554.44      41.387541      41.387541      82.055049          16004 
   3979000   3598.4576      597827.13      7264.6635      600454.5       595512.19      597514.69     -5919.1764     -326.61107     -111.32124      7443.5899      15060.745      22504.334      140904.29      41.421852      41.421852      82.123073          16004 
   3980000   3601.8358      596437.99      7272.1009      599718.44      592760.43      596835.1      -511.01057      632.70803     -2440.0808      7450.5778      15092.916      22543.494      140799.15      41.411546      41.411546      82.102641          16004 
   3981000   3597.1472      607126.59      7279.5348      605775.62      611197.24      604406.9      -1441.7994      673.79578      1679.7386      7440.8793      15240.18       22681.06       140431.35      41.375457      41.375457      82.031089          16004 
   3982000   3627.6566      602460.39      7286.975       602759.11      600418.78      604203.3      -62.252859     -585.66791      1163.9398      7503.9895      15102.907      22606.897      140625.54      41.394519      41.394519      82.068883          16004 
   3983000   3600.1005      599515.03      7294.4062      601098.82      596414.1       601032.17     -2039.7922      3371.9488     -4453.1849      7446.9883      15099.062      22546.05       140786.75      41.410331      41.410331      82.100231          16004 
   3984000   3614.7239      596047.05      7301.8356      595014.12      595520.56      597606.48      2727.0155     -4285.0576      1188.6638      7477.2374      15052.107      22529.344      140830.73      41.414642      41.414642      82.108779          16004 
   3985000   3600.8981      595367.75      7309.2699      596842.48      593451.63      595809.13      1115.2922     -144.24687     -2338.7968      7448.6381      15040.426      22489.064      140936.33      41.424991      41.424991      82.129297          16004 
   3986000   3628.3663      595953.31      7316.705       595087.19      600121.04      592651.69      397.34297     -179.55632      5607.038       7505.4575      15003.809      22509.266      140881.72      41.41964       41.41964       82.118687          16004 
   3987000   3598.6985      606246.36      7324.1511      606518.57      608151.16      604069.36     -2965.1325     -3805.3851      5683.3079      7444.088       15186.067      22630.155      140555.48      41.387643      41.387643      82.055251          16004 
   3988000   3584.1828      598316.24      7331.5835      598339.8       600374.73      596234.18      3207.6058     -933.72619     -1143.4431      7414.0616      15183.194      22597.256      140643.14      41.396246      41.396246      82.072307          16004 
   3989000   3563.8809      596128.15      7339.0145      593042.38      599965.54      595376.54      1010.107       117.88841      1390.1704      7372.0662      15147.536      22519.602      140849.42      41.416475      41.416475      82.112412          16004 
   3990000   3557.4671      599594.93      7346.4542      603493.11      597675.04      597616.64     -3181.8311      2462.8971     -5080.4775      7358.7988      15222.684      22581.482      140682.7       41.400127      41.400127      82.08              16004 
   3991000   3610.0115      602848.24      7353.893       602999.67      600538.21      605006.84     -28.715846     -1734.696      -5576.4742      7467.4896      15123.357      22590.846      140657.31      41.397636      41.397636      82.075062          16004 
   3992000   3579.1164      600356.58      7361.3361      600339.85      602963.04      597766.87      2024.1133     -103.40361      717.32228      7403.5816      15206.75       22610.331      140605.26      41.392529      41.392529      82.064937          16004 
   3993000   3596.1196      599308.01      7368.7701      598770.02      600001.76      599152.24      1753.2741      3965.4488     -2963.3785      7438.7535      15127.704      22566.457      140721.16      41.403899      41.403899      82.087479          16004 
   3994000   3576.6368      595483.52      7376.2103      596146.68      597494.72      592809.16     -2346.2624      1378.4471     -1684.5553      7398.4523      15170.322      22568.774      140713.79      41.403176      41.403176      82.086046          16004 
   3995000   3610.4662      596522.19      7383.641       598668.11      598214.71      592683.75      1338.3989      1762.1768      3746.4652      7468.4302      15069.111      22537.541      140794.99      41.411139      41.411139      82.101833          16004 
   3996000   3532.8543      599378.36      7391.0592      600628.37      601792.91      595713.8       471.40823      684.93134      403.63706      7307.8861      15278.707      22586.593      140662.78      41.398173      41.398173      82.076127          16004 
   3997000   3604.0246      605697.77      7398.5003      603419.92      607643.11      606030.28     -983.47888      1914.7611     -3933.579       7455.1055      15210.36       22665.466      140450.46      41.377333      41.377333      82.03481           16004 
   3998000   3606.9205      600083.01      7405.9327      601123.09      599037.81      600088.15     -2672.556      -4558.5127      721.50728      7461.0957      15142.676      22603.772      140613.71      41.393358      41.393358      82.066581          16004 
   3999000   3590.4652      599189.65      7413.3676      602307.18      600870.5       594391.27      300.47655      2236.9595      1830.6091      7427.0572      15143.853      22570.91       140699.18      41.401743      41.401743      82.083206          16004 
   4000000   3597.0357      603490.35      7420.822       606385.44      605273.8       598811.82      1530.4276     -4562.4583      2739.2165      7440.6486      15171.031      22611.68       140589.96      41.391027      41.391027      82.06196           16004 
Loop time of 7420.82 on 8 procs for 1000000 steps with 16004 atoms

Performance: 5.821 ns/day, 4.123 hours/ns, 134.756 timesteps/s
61.4% CPU use with 1 MPI tasks x 8 OpenMP threads

MPI task timing breakdown:
Section |  min time  |  avg time  |  max time  |%varavg| %total
---------------------------------------------------------------
Pair    | 7127.8     | 7127.8     | 7127.8     |   0.0 | 96.05
Neigh   | 12.004     | 12.004     | 12.004     |   0.0 |  0.16
Comm    | 42.375     | 42.375     | 42.375     |   0.0 |  0.57
Output  | 1.3711     | 1.3711     | 1.3711     |   0.0 |  0.02
Modify  | 212.03     | 212.03     | 212.03     |   0.0 |  2.86
Other   |            | 25.28      |            |       |  0.34

Nlocal:          16004 ave       16004 max       16004 min
Histogram: 1 0 0 0 0 0 0 0 0 0
Nghost:          14334 ave       14334 max       14334 min
Histogram: 1 0 0 0 0 0 0 0 0 0
Neighs:              0 ave           0 max           0 min
Histogram: 1 0 0 0 0 0 0 0 0 0
FullNghs:  1.64399e+06 ave 1.64399e+06 max 1.64399e+06 min
Histogram: 1 0 0 0 0 0 0 0 0 0

Total # of neighbors = 1643988
Ave neighs/atom = 102.72357
Neighbor list builds = 31443
Dangerous builds = 0
Total wall time: 7:45:07
