
atom_style atomic
units metal
boundary p p p
#atom_modify sort 0 0.0
newton on

read_data data.lammps
Reading data file ...
  orthogonal box = (0 0 0) to (43.790145 43.790145 87.58029)
  1 by 1 by 1 MPI processor grid
  reading atoms ...
  16004 atoms
  read_data CPU = 0.033 seconds
# replicate 10 10 20

### interactions

pair_style flare
pair_coeff * * lmp.flare
Reading potential file lmp.flare with DATE: Thu

# compute unc all flare/std/atom L_inv_lmp.flare sparse_desc_lmp.flare
# compute MaxUnc all reduce max c_unc

mass 1 12.011000
mass 2 28.085000

thermo_style custom step temp press cpu pxx pyy pzz pxy pxz pyz ke pe etotal vol lx ly lz atoms    #c_MaxUnc
thermo 1000
timestep 0.0005
restart 100000 restart_*.dat

#################### Equilibrate at P and T_es ##############################
velocity all create $T 41928459 rot yes dist gaussian
velocity all create 3600 41928459 rot yes dist gaussian
fix mom all momentum 1000 linear 1 1 1 angular

fix 1 all npt temp $T $T $(100.0*dt) iso $P $P $(1000.0*dt)
fix 1 all npt temp 3600 $T $(100.0*dt) iso $P $P $(1000.0*dt)
fix 1 all npt temp 3600 3600 $(100.0*dt) iso $P $P $(1000.0*dt)
fix 1 all npt temp 3600 3600 0.050000000000000002776 iso $P $P $(1000.0*dt)
fix 1 all npt temp 3600 3600 0.050000000000000002776 iso 900000 $P $(1000.0*dt)
fix 1 all npt temp 3600 3600 0.050000000000000002776 iso 900000 900000 $(1000.0*dt)
fix 1 all npt temp 3600 3600 0.050000000000000002776 iso 900000 900000 0.5
dump 1 all custom 1000 1equil.bin id type x y z vx vy vz
run   10000 # report performance
Neighbor list info ...
  update every 1 steps, delay 10 steps, check yes
  max neighbors/atom: 2000, page size: 100000
  master list distance cutoff = 6
  ghost atom cutoff = 6
  binsize = 6, bins = 8 8 15
  1 neighbor lists, perpetual/occasional/extra = 1 0 0
  (1) pair flare/kk, perpetual
      attributes: full, newton on, kokkos_device
      pair build: full/bin/kk/device
      stencil: full/bin/3d
      bin: kk/device
Per MPI rank memory allocation (min/avg/max) = 15.9 | 15.9 | 15.9 Mbytes
   Step          Temp          Press           CPU            Pxx            Pyy            Pzz            Pxy            Pxz            Pyz           KinEng         PotEng         TotEng         Volume           Lx             Ly             Lz          Atoms   
         0   3600           67557.906      0              67141.204      67594.979      67937.535     -846.34414      34.024028     -558.57611      7446.7804     -4000.2205      3446.5599      167941.93      43.790145      43.790145      87.58029           16004 
      1000   3711.4738      901108.66      7.062247       900786.88      903433.36      899105.74     -1191.8771     -3987.1337      301.62898      7677.3695      11477.291      19154.66       132947.15      40.508828      40.508828      81.017657          16004 
      2000   3568.3239      900066.91      14.195132      900209.73      899335.34      900655.66      957.07963      329.46922      36.479796      7381.2568      11259.386      18640.643      132690.86      40.482781      40.482781      80.965562          16004 
      3000   3655.2835      899183.75      21.32695       897538.79      899590.64      900421.81      3007.3525      1412.5449     -3571.3988      7561.137       11440.607      19001.744      132702.37      40.483951      40.483951      80.967903          16004 
      4000   3606.0467      898475.65      28.460001      895837.15      898765.39      900824.41      2622.1806      1540.017      -4711.7113      7459.2882      11333.99       18793.278      132649.26      40.478549      40.478549      80.957099          16004 
      5000   3607.613       899668         35.591913      901731.57      899574.84      897697.59      756.67647      517.56013      5712.2773      7462.5282      11494.438      18956.967      132643.81      40.477996      40.477996      80.955992          16004 
      6000   3581.5913      897839.27      42.726386      897050.2       897981.36      898486.26      361.39293      2639.8737      4987.9696      7408.7011      11484.281      18892.982      132662.27      40.479873      40.479873      80.959746          16004 
      7000   3605.996       899343.54      49.864317      898873.05      899680.42      899477.14      1239.429      -3888.7794     -2413.991       7459.1835      11427.881      18887.065      132614.48      40.475012      40.475012      80.950024          16004 
      8000   3594.1033      902970.51      57.000893      901048.51      901810.07      906052.96      1822.0742      3201.8036      3293.7079      7434.5827      11501.482      18936.065      132598.26      40.473361      40.473361      80.946723          16004 
      9000   3609.2364      899657.46      64.131939      902232.26      898862.63      897877.47      3692.3881     -1601.2284      2674.2674      7465.8863      11374.988      18840.874      132653.95      40.479027      40.479027      80.958054          16004 
     10000   3607.9025      900851.5       71.263964      898998.33      899846.67      903709.49     -5590.4636     -1360.4424      1760.4179      7463.127       11570.409      19033.536      132594.57      40.472986      40.472986      80.945972          16004 
Loop time of 71.264 on 8 procs for 10000 steps with 16004 atoms

Performance: 6.062 ns/day, 3.959 hours/ns, 140.323 timesteps/s
60.5% CPU use with 1 MPI tasks x 8 OpenMP threads

MPI task timing breakdown:
Section |  min time  |  avg time  |  max time  |%varavg| %total
---------------------------------------------------------------
Pair    | 68.273     | 68.273     | 68.273     |   0.0 | 95.80
Neigh   | 0.094878   | 0.094878   | 0.094878   |   0.0 |  0.13
Comm    | 0.32909    | 0.32909    | 0.32909    |   0.0 |  0.46
Output  | 0.011896   | 0.011896   | 0.011896   |   0.0 |  0.02
Modify  | 2.2863     | 2.2863     | 2.2863     |   0.0 |  3.21
Other   |            | 0.2686     |            |       |  0.38

Nlocal:          16004 ave       16004 max       16004 min
Histogram: 1 0 0 0 0 0 0 0 0 0
Nghost:          14566 ave       14566 max       14566 min
Histogram: 1 0 0 0 0 0 0 0 0 0
Neighs:              0 ave           0 max           0 min
Histogram: 1 0 0 0 0 0 0 0 0 0
FullNghs:  1.75745e+06 ave 1.75745e+06 max 1.75745e+06 min
Histogram: 1 0 0 0 0 0 0 0 0 0

Total # of neighbors = 1757448
Ave neighs/atom = 109.81305
Neighbor list builds = 238
Dangerous builds = 0
run  990000
Per MPI rank memory allocation (min/avg/max) = 16.45 | 16.45 | 16.45 Mbytes
   Step          Temp          Press           CPU            Pxx            Pyy            Pzz            Pxy            Pxz            Pyz           KinEng         PotEng         TotEng         Volume           Lx             Ly             Lz          Atoms   
     10000   3607.9025      900851.5       0              898998.33      899846.67      903709.49     -5590.4636     -1360.4424      1760.4179      7463.127       11570.409      19033.536      132594.57      40.472986      40.472986      80.945972          16004 
     11000   3593.4581      895745.21      7.1290545      892583.54      896500.65      898151.45     -1389.29        464.66373     -2876.0969      7433.248       11326.788      18760.036      132744.88      40.488273      40.488273      80.976547          16004 
     12000   3640.4776      906498.34      14.265449      905094.72      909005.21      905395.08     -1804.4108      2845.9        -54.252877      7530.5102      11553.953      19084.463      132503.76      40.463744      40.463744      80.927489          16004 
     13000   3593.1257      896648.45      21.396663      898911.14      893968.44      897065.77      2131.8532      2674.0552     -980.42094      7432.5604      11395.396      18827.957      132655.9       40.479225      40.479225      80.95845           16004 
     14000   3624.1606      903403.14      28.525817      903271.59      903565.8       903372.04      1763.476      -2805.2221      1821.1311      7496.7578      11470.264      18967.022      132549.66      40.468416      40.468416      80.936832          16004 
     15000   3577.8748      899020         35.655249      898979.79      899919.46      898160.75      2024.3467      254.44223      307.18436      7401.0133      11421.025      18822.039      132608         40.474353      40.474353      80.948705          16004 
     16000   3600.4359      902782.62      42.787619      903571.21      899243.55      905533.1      -8125.2847     -1457.2707      371.65649      7447.682       11561.49       19009.172      132488.5       40.462191      40.462191      80.924382          16004 
     17000   3637.5766      889513.88      49.918948      890206.2       889084.38      889251.07      1922.6452      285.17279     -3550.1379      7524.5094      11394.6        18919.11       132896.56      40.503689      40.503689      81.007379          16004 
     18000   3591.8422      908948.39      57.047002      907992.66      912118.86      906733.65     -3497.3911     -1346.534       428.46376      7429.9055      11589.905      19019.811      132392.49      40.452415      40.452415      80.90483           16004 
     19000   3591.8122      894434.02      64.177154      894069.64      896273.08      892959.35     -2285.5676     -1767.7349      523.85678      7429.8434      11397.072      18826.915      132740.97      40.487876      40.487876      80.975752          16004 
     20000   3573.2861      903128.04      71.307135      904230.53      902541.4       902612.19      221.27196     -4367.6584     -3135.8069      7391.5213      11499.095      18890.616      132502.51      40.463617      40.463617      80.927234          16004 
     21000   3611.892       897561.13      78.435309      896200.27      896511.33      899971.79      793.21639     -437.36369      4057.0575      7471.3795      11486.23       18957.61       132699.13      40.483622      40.483622      80.967244          16004 
     22000   3561.7029      902737.7       85.564915      905283.12      901030.48      901899.5      -560.46533      377.26958     -4229.0743      7367.5608      11506.944      18874.505      132518.1       40.465204      40.465204      80.930408          16004 
     23000   3587.9109      895545.49      92.695286      891484.59      898716.64      896435.23      4409.5082      1489.7982      1491.5192      7421.7735      11505.452      18927.225      132732.59      40.487024      40.487024      80.974048          16004 
     24000   3571.3266      905789.55      99.828436      904016.35      907379.01      905973.3       5225.319       4525.6192     -1890.85        7387.468       11564.939      18952.407      132462.44      40.459538      40.459538      80.919077          16004 
     25000   3585.2161      893647.48      106.95847      895450.19      889189.71      896302.54      518.88335      3448.2372     -1236.0633      7416.1992      11423.527      18839.726      132751.91      40.488988      40.488988      80.977976          16004 
     26000   3630.5708      899558.44      114.08938      899368.52      899377.18      899929.63      3120.7764     -4077.6482     -1676.2969      7510.0175      11487.79       18997.808      132543.93      40.467833      40.467833      80.935666          16004 
     27000   3607.7832      899785.67      121.22032      899992.99      896985.26      902378.75      6020.8054     -330.81285      3423.1776      7462.8803      11462.443      18925.323      132623.7       40.47595       40.47595       80.9519            16004 
     28000   3549.7587      901413.8       128.35433      902067.36      902826.37      899347.69      1228.7095     -3131.2072      2771.1888      7342.8538      11505.9        18848.753      132506.14      40.463987      40.463987      80.927974          16004 
     29000   3608.9245      894641.01      135.4892       893870.73      895262.05      894790.26      133.56929     -1265.1699      3150.1221      7465.2411      11446.319      18911.561      132750.43      40.488838      40.488838      80.977675          16004 
     30000   3594.0909      901492.8       142.62399      901524.65      897986.11      904967.63     -1430.8477     -6482.9536      1207.0099      7434.5571      11519.79       18954.347      132531.29      40.466546      40.466546      80.933093          16004 
     31000   3630.2309      896077.85      149.76045      893389.06      897840.9       897003.59      1116.5151      3480.8437      496.37838      7509.3145      11510.848      19020.163      132720.89      40.485835      40.485835      80.97167           16004 
     32000   3587.245       911422.8       156.89646      910010.28      912269.5       911988.63     -1406.144      -1050.0364     -144.15037      7420.3959      11665.407      19085.803      132263.3       40.439253      40.439253      80.878505          16004 
     33000   3579.8886      891616.92      164.0332       890238.97      892127.33      892484.48      2926.7542      1410.2357      1128.7102      7405.1789      11305.559      18710.737      132774.86      40.491322      40.491322      80.982643          16004 
     34000   3607.7756      904583.02      171.1687       904481.77      905985.53      903281.75      238.79404     -3135.1104     -1705.3367      7462.8646      11599.582      19062.446      132476.35      40.460954      40.460954      80.921908          16004 
     35000   3572.3634      895879.48      178.30605      896307.9       896116.1       895214.43     -3603.1674      1238.6369      2181.7742      7389.6128      11359.405      18749.018      132664.45      40.480095      40.480095      80.960189          16004 
     36000   3600.2366      904235.5       185.44381      903103.6       905667.12      903935.77      2599.1449     -2064.6304     -1145.8685      7447.2698      11538.364      18985.634      132517.59      40.465152      40.465152      80.930304          16004 
     37000   3578.7941      898343.62      192.58011      899851.47      897550.65      897628.73     -159.95964      3652.4115      4208.3106      7402.9148      11438          18840.915      132651.37      40.478764      40.478764      80.957528          16004 
     38000   3605.5875      900171.29      199.71854      903342.26      899358.37      897813.23      2781.3921      1007.8938      1070.3684      7458.3383      11551.057      19009.395      132585.38      40.472051      40.472051      80.944103          16004 
     39000   3582.556       903434.63      206.85882      902917.68      904249.19      903137.03     -3066.4945      2715.3335     -2247.537       7410.6965      11524.486      18935.182      132520.87      40.465486      40.465486      80.930973          16004 
     40000   3609.9605      896155.58      214.0005       895513.76      896433.95      896519.04      816.15684     -316.22719      437.92725      7467.3842      11400.914      18868.298      132697.26      40.483432      40.483432      80.966863          16004 
     41000   3597.8646      901924.5       221.14271      901014.36      903325.8       901433.33     -1933.8244      720.25107      55.696894      7442.3632      11431.808      18874.172      132576.57      40.471154      40.471154      80.942309          16004 
     42000   3591.0788      900180.99      228.28263      899969.43      901494.01      899079.55     -3770.2291      242.45499     -1706.4114      7428.3263      11543.196      18971.522      132557.84      40.469248      40.469248      80.938497          16004 
     43000   3563.8006      900014.21      235.42292      900814.98      900017.44      899210.21      404.78072      786.19547     -245.28552      7371.9001      11470.16       18842.06       132616.76      40.475243      40.475243      80.950487          16004 
     44000   3603.0688      903887.79      242.56514      904409.2       904662.06      902592.09      764.60539     -6012.3397      1894.9093      7453.1283      11504.741      18957.87       132553.64      40.468822      40.468822      80.937643          16004 
     45000   3568.6473      896524         249.70618      898353.85      895098.15      896120.02      4744.1274     -538.78492      1054.0603      7381.9257      11411.406      18793.332      132698.91      40.4836        40.4836        80.967199          16004 
     46000   3642.3842      904496.09      256.84941      906343.43      904393.96      902750.88      2001.0041      3185.7332     -2396.1898      7534.4541      11541.657      19076.111      132510.56      40.464437      40.464437      80.928873          16004 
     47000   3589.0243      896850.93      263.99252      896706.36      895952.26      897894.17     -2917.5261      124.12891     -325.81483      7424.0766      11355.037      18779.114      132636.18      40.47722       40.47722       80.954439          16004 
     48000   3592.9402      900834.53      271.13452      901190.08      901473.53      899839.98      4527.8365      4403.932      -1563.2281      7432.1768      11514.887      18947.064      132607.78      40.47433       40.47433       80.948659          16004 
     49000   3594.208       899991.55      278.27642      899422.62      899604.48      900947.55      4043.3366      4098.3286      603.59896      7434.7994      11481.323      18916.122      132654.78      40.479111      40.479111      80.958222          16004 
     50000   3611.6892      902042.45      285.42038      902582.39      898943.44      904601.53     -3545.4684      3843.4634     -3818.7169      7470.96        11508.631      18979.591      132587.23      40.472239      40.472239      80.944478          16004 
     51000   3600.1154      896130.22      292.56558      894809.96      894085.72      899494.99     -506.60928     -1524.5628      639.72886      7447.0191      11381.368      18828.387      132729.94      40.486755      40.486755      80.97351           16004 
     52000   3618.9388      905735.76      299.71139      904733.44      903882         908591.84      1524.8707      1241.4059      479.6413       7485.9561      11578.255      19064.211      132487.14      40.462052      40.462052      80.924104          16004 
     53000   3579.1134      888427.78      306.85503      888361.4       887917.2       889004.73     -11.989452      1323.6685     -1964.1962      7403.5755      11297.215      18700.791      132870.64      40.501055      40.501055      81.00211           16004 
     54000   3629.336       906107.66      314.0001       906560.75      904990.73      906771.5      -5168.9922     -262.53538     -2121.6393      7507.4633      11564.304      19071.768      132399.68      40.453147      40.453147      80.906295          16004 
     55000   3603.1555      896328.57      321.14524      893377.75      898999.57      896608.37      2818.285      -2150.7714      1930.2123      7453.3076      11389.375      18842.683      132726.4       40.486395      40.486395      80.972789          16004 
     56000   3622.2972      902471.76      328.29268      901636.01      903226.49      902552.78     -1100.9163      615.07074      1239.1525      7492.9032      11596.6        19089.503      132550.71      40.468523      40.468523      80.937047          16004 
     57000   3588.219       900321.8       335.44059      899948.16      901463.53      899553.71     -921.12667      92.029819      2427.351       7422.4107      11470.641      18893.052      132602.97      40.473841      40.473841      80.947682          16004 
     58000   3581.9188      899122.32      342.5853       897585.05      898688.75      901093.15      205.01233      2112.5359      3197.8182      7409.3785      11571.654      18981.033      132626.16      40.4762        40.4762        80.9524            16004 
     59000   3624.4368      896018.71      349.72998      894343.4       898223.23      895489.5       3494.718      -4991.0138     -1379.1921      7497.3291      11460.541      18957.871      132738.51      40.487626      40.487626      80.975252          16004 
     60000   3601.8994      909886.17      356.87833      908259.39      909344.76      912054.36     -369.41224     -2272.1521     -513.73924      7450.7094      11560.231      19010.94       132345.64      40.447643      40.447643      80.895285          16004 
     61000   3610.8615      888207.11      364.02891      886879.37      890419.09      887322.88     -4279.9437      259.05823     -1564.1951      7469.2478      11300.42       18769.668      132938.79      40.507979      40.507979      81.015957          16004 
     62000   3593.0314      903055.9       371.18417      901042.34      902752.05      905373.33      4250.5183      3365.752       278.99141      7432.3656      11520.546      18952.911      132537.63      40.467191      40.467191      80.934383          16004 
     63000   3629.858       898141.58      378.33798      899125.48      898971.43      896327.83      2722.3042      243.24395      1603.8915      7508.5431      11414.722      18923.265      132628.47      40.476435      40.476435      80.952871          16004 
     64000   3601.7603      898017.94      385.49348      900081.83      896882.05      897089.93      7579.6164      1388.882      -4524.5497      7450.4215      11402.981      18853.403      132689.32      40.482624      40.482624      80.965249          16004 
     65000   3594.2643      903177.05      392.65441      902259.44      903690.17      903581.55     -837.73828      3003.5038     -4386.88        7434.9158      11445.336      18880.251      132595.32      40.473062      40.473062      80.946124          16004 
     66000   3631.1369      896604.71      399.82004      894229.5       897119.86      898464.78      4605.6099      3297.013      -2509.0151      7511.1887      11436.179      18947.368      132775.94      40.491432      40.491432      80.982863          16004 
     67000   3636.7055      907868.44      406.99036      905994.43      906374.79      911236.09      4393.7402      393.99964      1956.4532      7522.7074      11492.448      19015.155      132405.6       40.45375       40.45375       80.9075            16004 
     68000   3646.806       891112.48      414.16053      891232.43      890252.46      891852.56     -225.9526      -3517.529       1324.2589      7543.601       11346.173      18889.774      132861.44      40.500121      40.500121      81.000242          16004 
     69000   3580.0936      903298.06      421.32899      903574.79      902038.56      904280.82      697.42233     -4139.9507     -3686.1794      7405.6029      11488.614      18894.217      132518.88      40.465283      40.465283      80.930566          16004 
     70000   3611.4391      898966.72      428.49967      900410.33      898570.25      897919.58     -4539.9768     -2582.1563      6351.5907      7470.4428      11449.43       18919.873      132599.68      40.473506      40.473506      80.947011          16004 
     71000   3647.0749      897125.47      435.66808      898603.61      899391.33      893381.47      605.88278     -3394.586       5480.2842      7544.1571      11491.071      19035.228      132656.3       40.479266      40.479266      80.958531          16004 
     72000   3579.5821      899836.33      442.83811      898808.82      900946.55      899753.6      -2201.4253      1726.2109      5200.3407      7404.5449      11480.771      18885.316      132575.69      40.471065      40.471065      80.94213           16004 
     73000   3609.4288      898563.09      450.01035      901119.16      896044.26      898525.85      3364.7104     -3359.4755     -2768.8713      7466.2842      11498.586      18964.87       132671.96      40.480858      40.480858      80.961717          16004 
     74000   3601.0829      900269.06      457.17887      900070.91      901457.62      899278.64      410.62425      3632.0308     -3353.9225      7449.0204      11422.926      18871.946      132574.6       40.470954      40.470954      80.941908          16004 
     75000   3583.9778      902025.75      464.34794      901120.29      904377.84      900579.12     -1028.3719      1812.8114     -1811.3399      7413.6376      11509.523      18923.16       132543.73      40.467813      40.467813      80.935625          16004 
     76000   3610.0407      896762.21      471.51809      896224.07      897615.24      896447.32      2995.8124      1936.5787      4802.1918      7467.55        11403.353      18870.903      132670.48      40.480708      40.480708      80.961416          16004 
     77000   3597.5511      900531.53      478.68418      899918.76      903145.44      898530.37      3217.6716      3539.5224      627.10945      7441.7147      11396.243      18837.957      132584.87      40.471999      40.471999      80.943999          16004 
     78000   3597.8875      900114.74      485.85083      900070.8       899573.36      900700.06     -61.78176      -6203.4886     -1128.2592      7442.4105      11412.893      18855.303      132587.7       40.472287      40.472287      80.944574          16004 
     79000   3634.9736      901211.26      493.01848      900320.68      901187.94      902125.16      2121.2361     -3883.2715      8183.6503      7519.1251      11431.267      18950.392      132563.53      40.469827      40.469827      80.939655          16004 
     80000   3617.5718      898448.97      500.1864       896959.05      898630.94      899756.92     -522.87641     -1440.9143     -2955.9237      7483.1286      11558.093      19041.221      132642.43      40.477855      40.477855      80.955711          16004 
     81000   3582.3357      897699.79      507.35325      898925.33      898680.69      895493.33     -3002.3909     -6418.8143     -2269.0006      7410.2409      11471.823      18882.063      132637.69      40.477373      40.477373      80.954746          16004 
     82000   3621.0816      901879.66      514.5176       900147.1       902684.08      902807.8      -3900.2112      2680.4044     -4167.2016      7490.3886      11513.45       19003.838      132612.12      40.474771      40.474771      80.949543          16004 
     83000   3565.3344      893791.19      521.68297      892552.35      896140.19      892681.04     -1197.6868     -2384.1358     -3165.2697      7375.0729      11328.543      18703.616      132772.88      40.491121      40.491121      80.982242          16004 
     84000   3582.5703      905417.84      528.85151      904965.41      908312.8       902975.29     -820.8948       1399.56       -1502.1433      7410.7261      11644.804      19055.53       132451.74      40.458449      40.458449      80.916898          16004 
     85000   3609.3665      898075.11      536.0174       898447.77      899188.49      896589.07      1884.6107     -4821.1236      162.58854      7466.1555      11353.89       18820.046      132682.35      40.481915      40.481915      80.963831          16004 
     86000   3637.4335      900598.69      543.18408      900549.92      898678.33      902567.84     -199.30914     -558.58173      467.93189      7524.2134      11514.089      19038.302      132575.47      40.471043      40.471043      80.942085          16004 
     87000   3578.2154      900353.08      550.35054      901554.22      897549.84      901955.17     -3028.5626     -460.52864     -2152.4637      7401.7179      11469.975      18871.693      132614.67      40.475031      40.475031      80.950062          16004 
     88000   3637.2236      903833.67      557.51787      902242.46      905910.81      903347.76      2296.4776     -1268.576      -586.06063      7523.7793      11541.797      19065.577      132596.4       40.473172      40.473172      80.946344          16004 
     89000   3563.2882      895151.02      564.6847       896442.72      894577.99      894432.34      970.16845      3586.4041     -3918.4197      7370.8402      11433.28       18804.12       132739.44      40.487721      40.487721      80.975441          16004 
     90000   3611.7906      907538.15      571.85415      909615.64      906054.57      906944.25     -16.488484      7608.9057      1306.9568      7471.1697      11578.083      19049.253      132429.04      40.456137      40.456137      80.912274          16004 
     91000   3566.851       887230.26      579.02302      885657.97      887208.24      888824.55     -4499.266      -2509.6126     -2064.4348      7378.21        11286.942      18665.152      132898.13      40.503848      40.503848      81.007697          16004 
     92000   3590.2633      905215.65      586.19029      903529.14      906785.34      905332.48     -647.03739      2703.0156     -773.34912      7426.6395      11557.959      18984.598      132445.59      40.457823      40.457823      80.915645          16004 
     93000   3582.5109      895757.84      593.35978      895527.93      894919.96      896825.63     -1142.001      -709.0063      -3741.323       7410.6033      11498.956      18909.56       132769.54      40.490781      40.490781      80.981562          16004 
     94000   3576.856       902220.58      600.5304       902506.94      900923.61      903231.18      7746.4895      4838.9632      1725.3207      7398.9059      11526.371      18925.277      132482.64      40.461594      40.461594      80.923188          16004 
     95000   3607.8827      895447.85      607.70024      895902.42      891404.96      899036.19     -1976.6809     -1307.1928     -451.76477      7463.0862      11421.445      18884.531      132692.53      40.482951      40.482951      80.965902          16004 
     96000   3587.3225      903789         614.87117      908350.06      901283.92      901733.02     -2276.6664     -2434.2261     -6465.1681      7420.5563      11515.596      18936.152      132465.36      40.459835      40.459835      80.91967           16004 
     97000   3617.7653      889296.46      622.04387      889602.96      890768.75      887517.66      2786.0295     -550.42471      730.03159      7483.5287      11282.626      18766.154      132881.47      40.502156      40.502156      81.004313          16004 
     98000   3585.3734      907575.1       629.21432      908220.42      907809.77      906695.1       3500.0583      1739.728       845.70052      7416.5246      11580.116      18996.641      132359.34      40.449039      40.449039      80.898077          16004 
     99000   3578.3329      894431.1       636.38581      894924.28      896329.64      892039.39      1248.1422      2700.5414      113.55961      7401.9609      11396.011      18797.972      132733.68      40.487135      40.487135      80.97427           16004 
    100000   3607.6303      904416.15      643.56418      905591.13      904040.94      903616.39      1182.7253     -3667.7071      6626.4154      7462.564       11551.741      19014.305      132504.72      40.463842      40.463842      80.927685          16004 
    101000   3554.4237      897108.19      650.73373      895825.26      898360.96      897138.36     -3565.3368      889.85846     -215.86357      7352.5035      11427.41       18779.913      132680.59      40.481736      40.481736      80.963472          16004 
    102000   3574.2594      903064.9       657.90363      899774.26      905557.16      903863.29      3777.5718      3702.3695     -109.71716      7393.5345      11542.014      18935.548      132563.53      40.469827      40.469827      80.939655          16004 
    103000   3601.1959      892896.6       665.07517      893309.06      891858.19      893522.56     -3149.0872     -2313.6968     -4299.5638      7449.2541      11336.853      18786.108      132760.97      40.48991       40.48991       80.97982           16004 
    104000   3648.6884      909406.96      672.24722      907654.69      912314.96      908251.24     -4505.5623      1782.4192     -484.75639      7547.4948      11581.014      19128.509      132384.13      40.451563      40.451563      80.903126          16004 
    105000   3623.7587      893928.54      679.41836      892793.03      893567.82      895424.78      646.0486       2925.2954      1115.4741      7495.9264      11319.766      18815.692      132791.6       40.493023      40.493023      80.986046          16004 
    106000   3602.4421      902465.81      686.59172      903381.84      902305.93      901709.68     -820.88266     -478.40639     -151.47594      7451.8319      11498.703      18950.535      132544.24      40.467865      40.467865      80.93573           16004 
    107000   3605.8528      900070.17      693.76351      900826.68      898939.09      900444.74     -4551.7425      1331.3512     -1098.7667      7458.8871      11525.812      18984.699      132647.41      40.478362      40.478362      80.956724          16004 
    108000   3608.3697      898841.59      700.93431      897673.22      896848.58      902002.96     -646.23494      1400.6298     -1823.2894      7464.0935      11396.579      18860.673      132634.86      40.477085      40.477085      80.954169          16004 
    109000   3597.8818      902044.75      708.10466      902990.14      902457.13      900686.97     -1755.3473     -1803.0449     -228.94361      7442.3987      11548.22       18990.619      132554.95      40.468955      40.468955      80.93791           16004 
    110000   3563.4599      895439.14      715.27513      895212.76      894932.9       896171.77      4705.2316     -4270.0964      4665.8348      7371.1953      11419.659      18790.854      132731.73      40.486936      40.486936      80.973873          16004 
    111000   3588.5806      901652.56      722.4449       900531.22      901455.3       902971.16     -2840.4191     -3731.0892     -911.94038      7423.1587      11560.8        18983.959      132507.44      40.464119      40.464119      80.928238          16004 
    112000   3545.8507      897110.67      729.61653      897855.27      898547.7       894929.06      91.82649      -4617.4724     -8180.2042      7334.7699      11453.102      18787.872      132644.52      40.478068      40.478068      80.956135          16004 
    113000   3603.1694      900300.53      736.78607      901417.78      897196.64      902287.18     -1261.0749      2960.6312      3341.7956      7453.3365      11520.769      18974.106      132614.78      40.475042      40.475042      80.950085          16004 
    114000   3549.307       900203.9       743.95785      900695.32      900294.76      899621.62      3999.5335      1212.7487      16.730227      7341.9193      11481.651      18823.57       132545.94      40.468038      40.468038      80.936075          16004 
    115000   3607.2468      900899.06      751.12737      902551.23      901399.06      898746.88     -4731.2438     -136.07565      524.93971      7461.7707      11496.753      18958.524      132579.9       40.471493      40.471493      80.942987          16004 
    116000   3575.1112      897478.77      758.29683      895731.26      896431.71      900273.33      1508.492       6068.9671     -4101.7054      7395.2966      11403.845      18799.142      132630.95      40.476687      40.476687      80.953374          16004 
    117000   3598.6733      903749.55      765.46575      904147.94      904048.86      903051.85     -5215.9326     -563.3601      -3033.4609      7444.0361      11571.659      19015.695      132490.64      40.462409      40.462409      80.924818          16004 
    118000   3564.1172      896759.89      772.63502      897536.11      895137.99      897605.57      1679.4106     -839.89409      6909.6145      7372.5549      11425.285      18797.84       132643.97      40.478012      40.478012      80.956023          16004 
    119000   3603.6113      902449.87      779.80398      903545.53      902710.07      901094        -2580.7164      1720.1106      1999.4454      7454.2504      11554.526      19008.777      132545.77      40.46802       40.46802       80.93604           16004 
    120000   3599.2745      897959.38      786.97493      897654.49      897767.57      898456.08      2623.7287      2832.9626     -2858.7148      7445.2796      11536.037      18981.317      132705.24      40.484243      40.484243      80.968487          16004 
    121000   3593.2253      904239.79      794.14574      905857.03      901891.28      904971.07      530.52674     -85.126751     -567.45079      7432.7665      11587.994      19020.76       132445.14      40.457776      40.457776      80.915552          16004 
    122000   3614.4177      899336.44      801.3144       898517.55      899280.13      900211.63     -2117.4565     -2471.9682      3523.1522      7476.6042      11388.574      18865.179      132616.89      40.475257      40.475257      80.950514          16004 
    123000   3592.0613      905143.73      808.48267      905404.31      904779.84      905247.04     -2108.1687      830.2069      -4800.1398      7430.3587      11585.505      19015.864      132503.31      40.463699      40.463699      80.927398          16004 
    124000   3575.6442      895196.4       815.65335      898922.33      890398.03      896268.85      3690.7989      3619.1096     -2301.5153      7396.3993      11359.028      18755.427      132718.51      40.485592      40.485592      80.971185          16004 
    125000   3645.0212      907004.34      822.82334      905496.73      906706.07      908810.22     -589.63585     -3878.8515      2459.1033      7539.909       11546.873      19086.782      132434.92      40.456736      40.456736      80.913472          16004 
    126000   3610.2338      894487.27      829.99251      892736.26      896158.34      894567.21      1232.6766     -439.82338     -2303.6135      7467.9494      11333.17       18801.119      132728.68      40.486627      40.486627      80.973254          16004 
    127000   3606.497       900624.73      837.16399      898779.18      900993.55      902101.46      667.42903     -3938.6068     -129.57047      7460.2197      11559.688      19019.908      132579.03      40.471405      40.471405      80.94281           16004 
    128000   3557.5482      897351.3       844.33685      897208.29      897735.41      897110.21      1039.3926     -3057.0659     -1178.1372      7358.9666      11469.869      18828.836      132624.14      40.475995      40.475995      80.951989          16004 
    129000   3613.8363      901903.5       851.5089       899419.52      904558.72      901732.26     -2587.9063      153.82001     -425.58745      7475.4014      11456.249      18931.65       132583.67      40.471877      40.471877      80.943754          16004 
    130000   3596.9038      896503.25      858.68032      898317.28      894824.89      896367.58     -1176.2491      1350.5587      587.23121      7440.3757      11413.466      18853.842      132732.08      40.486972      40.486972      80.973944          16004 
    131000   3580.5548      903109.62      865.85163      906789.98      902831.69      899707.18     -1801.2312      410.53277      8813.2861      7406.557       11500.809      18907.366      132502.34      40.4636        40.4636        80.927199          16004 
    132000   3646.8424      898207.79      873.02186      895136.58      901124.24      898362.57     -2007.9921     -251.33048      1975.4161      7543.6763      11385.792      18929.469      132702.83      40.483999      40.483999      80.967997          16004 
    133000   3593.264       899155.5       880.19264      900135.12      896757.87      900573.51      2078.5225      1561.2437     -2555.5231      7432.8466      11427.698      18860.545      132631.43      40.476737      40.476737      80.953473          16004 
    134000   3608.9602      900077.49      887.36248      900365.14      900690.77      899176.56      1840.4125      2219.5172     -3365.1573      7465.315       11565.879      19031.193      132635.82      40.477182      40.477182      80.954365          16004 
    135000   3653.9887      900609.98      894.53269      902817.69      898746.31      900265.94     -1917.0739     -2632.0141      766.94922      7558.4588      11400.776      18959.235      132613.14      40.474875      40.474875      80.949751          16004 
    136000   3626.6429      900165.55      901.7044       901548.36      898000.47      900947.83      4665.0193     -2011.3155      2701.7617      7501.8926      11474.66       18976.552      132626.94      40.47628       40.47628       80.952559          16004 
    137000   3583.5904      896645.72      908.87789      896537.3       896080.28      897319.57      320.16466     -7.4482881      1403.368       7412.8362      11446.598      18859.435      132682.2       40.4819        40.4819        80.9638            16004 
    138000   3591.3551      902232.24      916.0489       898641.41      904638.02      903417.28      918.96221      2211.7693      2758.8393      7428.898       11531.998      18960.896      132551.6       40.468614      40.468614      80.937228          16004 
    139000   3613.0422      894989.13      923.22126      894957.35      895176.82      894833.22     -3650.4299      4439.4907      286.87145      7473.7588      11392.147      18865.906      132751.02      40.488898      40.488898      80.977797          16004 
    140000   3561.5704      901927.16      930.39439      900994.1       900915.91      903871.47      7466.1354      1411.6908      1444.3021      7367.2868      11480.403      18847.689      132519.8       40.465377      40.465377      80.930754          16004 
    141000   3615.5897      898050.7       937.56695      898571.56      897603.78      897976.76     -2388.3951     -828.36999      6059.7136      7479.0284      11412.494      18891.523      132659.72      40.479614      40.479614      80.959229          16004 
    142000   3582.545       903238.32      944.73981      903282.62      901955.83      904476.5      -1964.8256     -3594.0567      5093.5342      7410.6738      11475.391      18886.065      132518.34      40.465229      40.465229      80.930458          16004 
    143000   3594.4755      898411.22      951.91033      901655.44      896479.64      897098.56     -173.13673      3702.7595     -1821.3612      7435.3527      11369.603      18804.956      132641.15      40.477725      40.477725      80.95545           16004 
    144000   3620.7205      903029.12      959.08031      901725.38      901426.69      905935.31      654.10151      842.41169     -3371.1361      7489.6418      11563.646      19053.288      132509.9       40.464369      40.464369      80.928739          16004 
    145000   3611.0176      891853.8       966.24926      891847.71      891841.65      891872.05     -112.91955     -839.01845     -3411.8308      7469.5709      11359.403      18828.974      132772.25      40.491057      40.491057      80.982113          16004 
    146000   3615.3894      903991.76      973.41663      906309.92      903931.59      901733.76     -70.389772     -2193.2277     -2201.5598      7478.6142      11570.14       19048.754      132457.58      40.459043      40.459043      80.918086          16004 
    147000   3625.2141      897157.71      980.58598      898952.33      897744.2       894776.6      -941.25232     -4454.9862     -2827.1365      7498.9371      11427.204      18926.141      132689.85      40.482678      40.482678      80.965355          16004 
    148000   3608.0663      902897.91      987.754        905139.04      901503.24      902051.45      5607.8107      4402.3796     -1607.0487      7463.466       11483.204      18946.67       132545.66      40.468009      40.468009      80.936018          16004 
    149000   3571.858       900248.02      994.92021      899200.68      901195.14      900348.25     -4343.7629      386.38239     -2175.753       7388.5672      11393.044      18781.611      132626.59      40.476244      40.476244      80.952487          16004 
    150000   3584.2598      904626.61      1002.0886      902333.68      906153.94      905392.2      -2781.002       1086.1221      1090.6817      7414.221       11603.932      19018.153      132459.67      40.459256      40.459256      80.918512          16004 
    151000   3598.6259      894135.19      1009.2538      894550.1       893551.51      894303.97     -1315.8131      1475.3983      3968.6853      7443.9379      11341.703      18785.641      132764.49      40.490267      40.490267      80.980535          16004 
    152000   3662.5331      910399.73      1016.4242      912969.87      908536.15      909693.17     -2359.2627      9365.7501     -1870.0844      7576.1332      11575.544      19151.678      132367.57      40.449876      40.449876      80.899753          16004 
    153000   3592.478       891854.2       1023.594       893726.31      889284.98      892551.31      1712.6925     -1002.5719     -2907.0117      7431.2208      11319.849      18751.07       132829.39      40.496864      40.496864      80.993728          16004 
    154000   3570.8804      904027.15      1030.7625      904057.98      902092.27      905931.2       78.167949     -1119.0645     -1765.4643      7386.545       11642.575      19029.12       132472.01      40.460512      40.460512      80.921025          16004 
    155000   3604.842       896678.36      1037.9295      895210.2       897257.43      897567.45     -718.04219     -4151.1008     -3236.8469      7456.7963      11388.216      18845.013      132689.46      40.482639      40.482639      80.965277          16004 
    156000   3558.9828      903555.25      1045.0965      903433.24      904466.75      902765.77      569.32183     -1012.7276     -3380.4697      7361.9342      11527.497      18889.432      132492.86      40.462635      40.462635      80.925269          16004 
    157000   3620.8766      898179.9       1052.2636      899659.84      898893.83      895986.03      2372.5044      5185.5265      1525.3391      7489.9646      11412.627      18902.592      132658.58      40.479497      40.479497      80.958995          16004 
    158000   3588.4883      905081.53      1059.4307      907420.35      905789.37      902034.86      1691.6456     -3091.7562      2745.5632      7422.9679      11496.516      18919.483      132456.5       40.458933      40.458933      80.917866          16004 
    159000   3589.8434      892375.07      1066.6013      893103.38      890557.38      893464.45     -6247.9044      483.45159      1877.2565      7425.7708      11386.213      18811.984      132806.92      40.49458       40.49458       80.98916           16004 
    160000   3588.6161      904705.82      1073.7706      902621.04      905173.92      906322.51     -5360.3037     -4591.914       2632.0063      7423.2321      11586.077      19009.309      132436.23      40.456869      40.456869      80.913739          16004 
    161000   3643.7626      897165.33      1080.9427      896035.46      898788.66      896671.88     -3236.0794     -1380.7323     -1162.0305      7537.3055      11435.958      18973.263      132702.6       40.483975      40.483975      80.967949          16004 
    162000   3622.8222      903197.96      1088.1149      902601.69      903269.44      903722.74     -3194.8599     -868.97349      392.61534      7493.9892      11483.933      18977.922      132527.5       40.466161      40.466161      80.932323          16004 
    163000   3576.5268      897688.13      1095.2876      898193.23      897861.51      897009.64      3012.5089     -1767.4395      7111.2037      7398.2249      11478.463      18876.688      132626.37      40.476221      40.476221      80.952443          16004 
    164000   3648.2212      901450.59      1102.4588      900702.71      902189.13      901459.93     -4518.3079      4482.3686      1827.6473      7546.5282      11536.348      19082.876      132609.49      40.474504      40.474504      80.949008          16004 
    165000   3569.5635      898076.92      1109.6325      897155.51      899674.98      897400.28     -3964.5017      2247.7282     -1538.1017      7383.8209      11473.343      18857.164      132641.04      40.477714      40.477714      80.955428          16004 
    166000   3611.827       903955.94      1116.8034      904209.36      903899.96      903758.48      4431.7977      976.49851      1247.5424      7471.2452      11602.575      19073.82       132510.59      40.46444       40.46444       80.92888           16004 
    167000   3611.4167      896221.21      1123.9768      898835.3       894362.2       895466.11     -2500.616      -3903.0704      5303.4116      7470.3964      11381.239      18851.636      132680.67      40.481744      40.481744      80.963488          16004 
    168000   3618.0718      903154.64      1131.1464      904170.39      902164.82      903128.7       866.56782      428.38044     -371.31192      7484.1627      11542.738      19026.9        132554.89      40.468948      40.468948      80.937896          16004 
    169000   3612.8312      897302.72      1138.3193      894220.39      899010.72      898677.05     -86.327786      4431.721      -1482.9352      7473.3223      11486.753      18960.076      132652.61      40.478891      40.478891      80.957781          16004 
    170000   3589.8811      902798.69      1145.4939      902120.63      903837.47      902437.96      886.53045     -34.44169      -3399.9433      7425.849       11518.376      18944.225      132557.42      40.469205      40.469205      80.938411          16004 
    171000   3592.8243      896163.61      1152.6662      892884.45      899800.37      895806        -40.892455      1561.4689      2345.096       7431.937       11431.566      18863.503      132732.36      40.487001      40.487001      80.974001          16004 
    172000   3596.135       905719.53      1159.8377      905680.99      904746.22      906731.37     -4399.473       69.265225      4052.0741      7438.7854      11617.322      19056.107      132457.58      40.459043      40.459043      80.918086          16004 
    173000   3579.9461      889332.57      1167.0096      891826.11      887935.24      888236.35      1443.5626     -3446.5574     -614.04099      7405.2979      11246.502      18651.8        132877.17      40.50172       40.50172       81.003439          16004 
    174000   3584.1609      905518.7       1174.1802      903052.21      907112.9       906391         774.41498      1798.064      -4582.8565      7414.0163      11601.035      19015.052      132460.71      40.459361      40.459361      80.918723          16004 
    175000   3630.1873      894469.88      1181.3508      893243.82      895680.11      894485.73     -5339.0505      1356.7967     -5060.1815      7509.2243      11461.739      18970.963      132773.62      40.491195      40.491195      80.98239           16004 
    176000   3625.9468      905342.46      1188.5219      903712.67      905796.75      906517.97      1675.5378     -6.003497      -3202.7966      7500.4525      11502.582      19003.035      132465.37      40.459836      40.459836      80.919672          16004 
    177000   3577.3978      894918.1       1195.6927      892778.55      894702.17      897273.58     -1269.3535      2862.1015      273.33425      7400.0266      11422.438      18822.465      132670.71      40.480732      40.480732      80.961464          16004 
    178000   3599.6989      904295.42      1202.864       903848.49      906425.02      902612.75      1742.712       551.21851      442.31699      7446.1576      11583.582      19029.74       132446.69      40.457934      40.457934      80.915868          16004 
    179000   3549.2565      894094.75      1210.0363      895656.93      891991.96      894635.37      2001.6882     -1710.4971      2242.36        7341.8149      11407.731      18749.545      132745.65      40.488352      40.488352      80.976704          16004 
    180000   3593.8555      909962.14      1217.2068      908836.01      909001.53      912048.87      1312.381      -2494.3666     -3429.5728      7434.0703      11587.597      19021.667      132338.06      40.44687       40.44687       80.893741          16004 
    181000   3654.2091      894076.73      1224.3762      892861.46      894505.84      894862.87     -432.94259     -1147.3352     -1936.9585      7558.9146      11415.364      18974.278      132805.33      40.494419      40.494419      80.988838          16004 
    182000   3603.0315      904145         1231.5474      906231.06      902471.87      903732.06     -145.70597     -2213.9296      3110.3906      7453.0511      11458.459      18911.51       132476.92      40.461012      40.461012      80.922023          16004 
    183000   3621.9262      898972.56      1238.7155      897543.81      899961.37      899412.5      -921.80822      1791.5741     -7632.078       7492.1359      11499.1        18991.236      132700.99      40.483811      40.483811      80.967622          16004 
    184000   3613.6595      902146         1245.8874      900877.01      901405.64      904155.35     -478.15785      6784.9887     -870.31938      7475.0358      11427.815      18902.851      132581.4       40.471646      40.471646      80.943291          16004 
    185000   3638.8373      898507.79      1253.0588      900841.83      897156.62      897524.94     -1856.1222      1174.7282      4930.2357      7527.1173      11422.216      18949.333      132652.03      40.478832      40.478832      80.957664          16004 
    186000   3607.5937      903067.91      1260.2301      904688.01      901057.27      903458.45      70.550941     -634.87221      1385.1546      7462.4882      11465.552      18928.04       132598.92      40.473429      40.473429      80.946858          16004 
    187000   3631.5055      901059.53      1267.4034      901326.99      901767.7       900083.92     -2901.3577      4130.819       471.1001       7511.951       11398.825      18910.776      132543.46      40.467785      40.467785      80.93557           16004 
    188000   3609.6063      898050.78      1274.5743      898162.38      896033.32      899956.64     -1348.6305      3078.1224     -3216.672       7466.6514      11554.858      19021.51       132665.73      40.480225      40.480225      80.96045           16004 
    189000   3573.7779      900288.11      1281.7469      899668.48      902036.38      899159.48     -4273.0066     -4375.5927      4344.9288      7392.5386      11477.795      18870.333      132585.85      40.472099      40.472099      80.944197          16004 
    190000   3614.2019      900878.45      1288.9184      900877.37      901145.01      900612.96     -1192.0308      4405.2946      621.19979      7476.1578      11509.909      18986.067      132636.16      40.477217      40.477217      80.954434          16004 
    191000   3602.4778      903004.4       1296.0876      903334.9       901160.06      904518.23      5608.5739      393.97063      4818.4438      7451.9058      11391.774      18843.68       132552.39      40.468694      40.468694      80.937387          16004 
    192000   3593.2289      896937.29      1303.259       899084.69      894934.84      896792.33      4337.7584     -2278.0954     -322.21248      7432.7741      11482.818      18915.592      132717.87      40.485527      40.485527      80.971055          16004 
    193000   3553.4156      904199.33      1310.4301      904512.65      902838.87      905246.46      935.74295      2130.6916     -2433.2631      7350.4182      11538.529      18888.947      132478.28      40.461151      40.461151      80.922302          16004 
    194000   3569.9207      897320.64      1317.6034      899876.76      893888.5       898196.65      154.02717      1186.6681      4925.494       7384.5598      11519.211      18903.771      132664.85      40.480135      40.480135      80.960271          16004 
    195000   3585.844       901405.62      1324.7748      902140.1       901550.66      900526.1       2556.7986     -373.33053     -1851.6416      7417.4979      11504.499      18921.997      132514.99      40.464888      40.464888      80.929776          16004 
    196000   3605.1662      895806.18      1331.9491      896987.81      891705.38      898725.34      1317.9313      2581.6311     -651.35761      7457.4669      11417.157      18874.624      132671.35      40.480797      40.480797      80.961594          16004 
    197000   3624.9521      904972.79      1339.1229      907030.38      900722.76      907165.22      408.32359      1246.2486      4726.5778      7498.395       11423.363      18921.758      132461.86      40.459479      40.459479      80.918957          16004 
    198000   3605.1322      896541.58      1346.294       899143.91      893739.57      896741.25      835.33929     -1021.2787     -3913.5971      7457.3965      11429.118      18886.514      132723.76      40.486126      40.486126      80.972252          16004 
    199000   3549.7281      900172.58      1353.467       900254.13      899322.31      900941.31      1927.4382     -3671.1425     -309.59832      7342.7904      11483.977      18826.768      132519.65      40.465362      40.465362      80.930724          16004 
    200000   3592.9513      895448.79      1360.6444      895053.24      895361.96      895931.18      88.359869     -5879.6671      6801.3618      7432.1998      11439.729      18871.929      132741.95      40.487976      40.487976      80.975952          16004 
    201000   3560.2556      903745.47      1367.8147      902888.37      904212.96      904135.08     -423.51479     -5017.5582      3579.6442      7364.567       11441.013      18805.58       132473.65      40.46068       40.46068       80.921359          16004 
    202000   3597.4888      894373.87      1374.9901      898211.04      894669.43      890241.13     -4597.0208      2377.602      -5585.7808      7441.5857      11521.694      18963.28       132740.27      40.487805      40.487805      80.975609          16004 
    203000   3602.8983      904180.1       1382.1637      903975.43      903917.39      904647.49     -2235.7377     -1237.542      -1336.2701      7452.7757      11478.884      18931.659      132505.18      40.463889      40.463889      80.927778          16004 
    204000   3599.3337      898136.09      1389.3362      900823.6       897515.14      896069.53     -3867.6584      1528.1792     -6032.2634      7445.4021      11488.283      18933.685      132658.9       40.479531      40.479531      80.959061          16004 
    205000   3603.9651      902085.98      1396.5129      904526.85      899052.27      902678.83      2575.4907      1058.6657     -1886.5399      7454.9824      11525.202      18980.184      132535.42      40.466967      40.466967      80.933935          16004 
    206000   3609.589       899279.83      1403.6868      898992.41      896180.67      902666.41      427.58576     -2247.5662     -3326.6284      7466.6157      11550.824      19017.44       132603.65      40.473909      40.473909      80.947819          16004 
    207000   3571.992       898259.48      1410.8608      897376.38      898130.06      899272.01      2283.1797     -1152.3407      1528.6099      7388.8444      11400.436      18789.28       132587.25      40.472241      40.472241      80.944482          16004 
    208000   3596.244       903290.34      1418.0323      904178.93      903223.08      902469.02      2747.4569      1178.2949     -756.25714      7439.011       11517.444      18956.455      132512.04      40.464588      40.464588      80.929175          16004 
    209000   3631.071       893222.83      1425.2035      892625.48      891884.54      895158.47      1983.5601     -905.05759      750.50172      7511.0523      11313.197      18824.249      132786.81      40.492536      40.492536      80.985072          16004 
    210000   3630.5751      904020.16      1432.3737      904843.94      902347.23      904869.32      36.486608     -2894.2065      506.12899      7510.0265      11555.971      19065.998      132513.56      40.464742      40.464742      80.929485          16004 
    211000   3575.2282      894357.83      1439.5425      892970         895608.53      894494.96     -1107.8198     -434.56072      857.89288      7395.5387      11388.139      18783.678      132746.4       40.488429      40.488429      80.976857          16004 
    212000   3608.3089      899920.94      1446.7125      899106.28      897850.15      902806.4      -1705.2202     -809.33238      5594.3948      7463.9677      11494.642      18958.61       132589.07      40.472426      40.472426      80.944853          16004 
    213000   3615.4211      898581.06      1453.8824      897846.15      900462.37      897434.68      5011.4437      3166.6209      3952.2897      7478.6797      11338.591      18817.271      132611.02      40.47466       40.47466       80.94932           16004 
    214000   3601.6376      902224.35      1461.0511      903249.15      901337.34      902086.55      2718.7826     -2705.9643     -510.63893      7450.1679      11545.582      18995.75       132613.87      40.47495       40.47495       80.9499            16004 
    215000   3620.0563      895715.53      1468.2189      897441.42      895985.78      893719.4       172.43688     -4270.5436     -9750.2668      7488.2677      11306.366      18794.634      132700.09      40.483719      40.483719      80.967438          16004 
    216000   3626.3596      906724.36      1475.3858      905294.11      906520.15      908358.82     -5725.8901     -1185.7695     -4241.6818      7501.3066      11693.072      19194.378      132476.46      40.460965      40.460965      80.921931          16004 
    217000   3618.8191      887252.16      1482.556       888058.65      887225.59      886472.24     -2444.0824     -38.708723     -5693.3232      7485.7086      11259.994      18745.703      132951.79      40.5093        40.5093        81.018599          16004 
    218000   3587.0869      908846.69      1489.7248      906753.01      908643.2       911143.85      1449.5312      2239.5084      2765.6528      7420.069       11577.15       18997.219      132346.12      40.447691      40.447691      80.895383          16004 
    219000   3587.5186      897124.84      1496.8954      894935.81      899207.47      897231.25     -3629.146      -1783.1897      1242.0392      7420.962       11474.538      18895.501      132688.55      40.482546      40.482546      80.965093          16004 
    220000   3616.9431      899942.1       1504.068       900740.55      897691.79      901393.96     -1473.8581     -1594.8229      3989.2132      7481.828       11551.79       19033.618      132565.94      40.470073      40.470073      80.940146          16004 
    221000   3619.8375      897195.53      1511.2396      897284.37      898859.61      895442.62     -4694.785       126.48273     -4282.0531      7487.8152      11422.023      18909.839      132667.02      40.480357      40.480357      80.960713          16004 
    222000   3609.8801      902911.4       1518.4087      904773.77      901199.45      902760.97     -2515.5097     -2902.5235      6665.8619      7467.2179      11436.137      18903.355      132534.43      40.466866      40.466866      80.933733          16004 
    223000   3572.4626      900164.88      1525.5797      900806.84      900782.15      898905.66      2301.9793     -2306.3767     -899.76101      7389.8179      11432.005      18821.823      132607.59      40.474311      40.474311      80.948621          16004 
    224000   3648.62        906537.6       1532.7529      905699.88      908409.89      905503.02      1267.7869      2108.0438      1343.8523      7547.3532      11562.898      19110.251      132486.43      40.46198       40.46198       80.92396           16004 
    225000   3554.8256      891162.83      1539.9244      892390.84      892472.95      888624.71     -3680.0865     -3981.0164      550.55454      7353.3349      11387.322      18740.657      132829.82      40.496908      40.496908      80.993816          16004 
    226000   3622.7895      903859.22      1547.0969      903521.25      905043.44      903012.98     -2029.1056      2539.9882     -4288.5668      7493.9216      11624.15       19118.072      132517.46      40.465139      40.465139      80.930278          16004 
    227000   3599.5258      898430.18      1554.2681      899870.44      897218.49      898201.61     -802.26814     -1511.1068     -116.52189      7445.7995      11403.792      18849.592      132649.43      40.478567      40.478567      80.957135          16004 
    228000   3582.1496      899440.83      1561.4388      901619.21      897712.67      898990.62      6733.5779     -3131.4005     -1203.6463      7409.8558      11589.202      18999.058      132592.12      40.472737      40.472737      80.945473          16004 
    229000   3599.5575      899913.9       1568.6117      900522.4       897591.27      901628.02     -62.953055      2951.0392      468.62434      7445.865       11465.964      18911.829      132618.85      40.475457      40.475457      80.950914          16004 
    230000   3593.3576      899144.44      1575.7854      900036.51      899082.75      898314.05      1600.8979      1757.0251      3537.9351      7433.0401      11384.32       18817.36       132626.51      40.476236      40.476236      80.952471          16004 
    231000   3605.5923      897253.86      1582.9573      897069.86      897775.41      896916.33      299.38034     -5389.6544     -2876.871       7458.3484      11438.504      18896.853      132691.33      40.482829      40.482829      80.965658          16004 
    232000   3602.0519      900514.38      1590.1297      900964.09      899919.16      900659.9      -58.676483      4702.4213     -1479.3985      7451.0249      11526.29       18977.315      132563.33      40.469807      40.469807      80.939614          16004 
    233000   3599.9418      900520.48      1597.3037      900926.2       901395.5       899239.72     -2002.1312     -1335.7167     -778.10261      7446.6599      11482.555      18929.215      132565.46      40.470024      40.470024      80.940048          16004 
    234000   3628.5453      902514.19      1604.4774      901858.28      904430.32      901253.96     -5165.6181      559.44038     -808.23546      7505.8277      11414.212      18920.04       132524.76      40.465882      40.465882      80.931763          16004 
    235000   3608.474       899540.57      1611.6499      897574.2       899806.84      901240.66     -1025.2203     -2681.7726      1260.7317      7464.3092      11449.208      18913.517      132643.64      40.477978      40.477978      80.955957          16004 
    236000   3580.8911      899113.05      1618.8217      895798.05      899203.27      902337.84     -3453.3345      4749.6267      1704.0621      7407.2527      11443.598      18850.851      132552.65      40.468721      40.468721      80.937442          16004 
    237000   3601.0537      902229.88      1625.9961      901675.18      903778.05      901236.42      1597.4844     -66.560724      5993.3671      7448.9599      11502.924      18951.884      132590.12      40.472533      40.472533      80.945067          16004 
    238000   3550.7101      895930.16      1633.1688      897595.18      897004.34      893190.98     -1525.3634     -145.47812      932.18033      7344.8218      11411.367      18756.188      132689.99      40.482693      40.482693      80.965386          16004 
    239000   3638.0409      908999.05      1640.3428      908081         908041.19      910874.97     -2472.5445     -899.36542      3494.3537      7525.4698      11581.138      19106.607      132395.64      40.452736      40.452736      80.905472          16004 
    240000   3606.6654      894597.58      1647.5168      893469.58      893805.12      896518.03      3850.1301     -4039.4025     -1975.9132      7460.5681      11444.792      18905.36       132767.11      40.490533      40.490533      80.981067          16004 
    241000   3541.6304      901989.35      1654.688       903796.3       899354.04      902817.7       753.58386     -903.02645     -1408.1147      7326.0399      11475.546      18801.586      132533.78      40.4668        40.4668        80.933601          16004 
    242000   3606.7845      896213.2       1661.8583      896835.37      894574.08      897230.14     -4580.2377      1669.2976      1034.2158      7460.8144      11416.517      18877.332      132715.99      40.485336      40.485336      80.970673          16004 
    243000   3552.1849      901779.54      1669.0313      902040.3       900072.42      903225.92      4579.1673     -3936.889      -405.00024      7347.8724      11421.809      18769.682      132498.8       40.463239      40.463239      80.926479          16004 
    244000   3589.0716      897601.33      1676.2017      898204.23      897099.29      897500.47     -2037.8281     -2137.99       -1857.7459      7424.1744      11483.816      18907.99       132667.95      40.480451      40.480451      80.960902          16004 
    245000   3566.8336      906958.68      1683.373       906245.98      907197.04      907433.01      1160.0649     -2740.6887      260.53911      7378.174       11594.577      18972.751      132375.92      40.450727      40.450727      80.901454          16004 
    246000   3592.5008      891518.08      1690.5453      892281.4       893322.64      888950.2      -2304.6006      3322.9763     -81.980818      7431.268       11429.361      18860.629      132836.6       40.497597      40.497597      80.995194          16004 
    247000   3581.589       905521.36      1697.7141      907834.22      903727.61      905002.24     -2791.4797      328.07027      1244.403       7408.6963      11487.774      18896.47       132402.65      40.45345       40.45345       80.906899          16004 
    248000   3608.9564      892754.07      1704.8865      894142.21      892040.37      892079.64     -2798.4244     -1427.8656      4727.4062      7465.3072      11450.862      18916.169      132818.69      40.495777      40.495777      80.991553          16004 
    249000   3576.3359      901880.75      1712.0583      904240.65      899253.26      902148.35      1025.3351     -3654.879       2485.8508      7397.8299      11550.55       18948.38       132539.75      40.467408      40.467408      80.934816          16004 
    250000   3591.5307      899356.53      1719.2299      898448.83      900447.99      899172.77     -774.00026      7.2537713     -593.71386      7429.2611      11426.295      18855.556      132585.62      40.472076      40.472076      80.944152          16004 
    251000   3593.5471      899897.55      1726.3991      898910.31      899992.48      900789.84      1531.1581     -1976.3785     -1881.7302      7433.4323      11499.283      18932.715      132598.39      40.473375      40.473375      80.946751          16004 
    252000   3573.0114      901039.89      1733.5712      901115.06      901725.56      900279.04     -2844.5854      1018.2069     -2478.823       7390.9531      11434.61       18825.563      132588.26      40.472344      40.472344      80.944688          16004 
    253000   3607.6704      899414.83      1740.7424      900879.17      899985.89      897379.42     -1318.0366      2774.9972     -4659.0632      7462.6469      11467.95       18930.597      132619.74      40.475547      40.475547      80.951093          16004 
    254000   3624.0253      899372.72      1747.9175      900280.98      900668.18      897169        -2972.8927      381.84737      712.68226      7496.4779      11380.152      18876.63       132647.15      40.478335      40.478335      80.95667           16004 
    255000   3647.4477      900756         1755.0877      900166.35      900702.51      901399.13      1157.2315      3709.6542     -1912.5995      7544.9283      11583.823      19128.751      132641.15      40.477725      40.477725      80.95545           16004 
    256000   3648.7222      902679.25      1762.2589      904789.51      902388.77      900859.47      42.133471     -2112.4582     -491.90168      7547.5647      11354.69       18902.254      132537.57      40.467186      40.467186      80.934372          16004 
    257000   3642.0955      900595.41      1769.4291      900921.29      899481.69      901383.24     -5596.1441      3890.8402      121.25036      7533.857       11405.151      18939.008      132606.85      40.474236      40.474236      80.948471          16004 
    258000   3593.3275      898275.06      1776.6024      896499.03      897255.83      901070.32     -4086.4623     -2464.1777      2113.171       7432.9781      11381.115      18814.093      132617.64      40.475333      40.475333      80.950666          16004 
    259000   3608.2338      902583.93      1783.7767      902299.25      900667.55      904785         3245.51        3102.8368      325.3165       7463.8124      11590.988      19054.8        132522.1       40.465611      40.465611      80.931223          16004 
    260000   3594.7594      892776.1       1790.9503      889894.72      894171.67      894261.9       2196.3647      1195.8875      335.58178      7435.9399      11380.831      18816.771      132774.64      40.4913        40.4913        80.982599          16004 
    261000   3584.4894      905483.69      1798.1219      903605.25      906240.85      906604.99     -93.747742     -1536.2856     -2597.2535      7414.6959      11500.19       18914.886      132433.56      40.456597      40.456597      80.913195          16004 
    262000   3613.6189      896911.48      1805.2947      897515.17      897127.99      896091.28     -1890.8476     -404.39546      1006.8763      7474.9518      11419.239      18894.19       132660.39      40.479681      40.479681      80.959363          16004 
    263000   3597.741       903042.46      1812.4667      905797.97      901525.68      901803.72      46.070901     -2280.4115      576.31619      7442.1076      11457.579      18899.687      132525.68      40.465976      40.465976      80.931952          16004 
    264000   3588.4413      894660.79      1819.6401      892939.85      895259.45      895783.09      549.23578      1066.303      -1194.6042      7422.8707      11399.351      18822.222      132777.54      40.491594      40.491594      80.983188          16004 
    265000   3607.4799      910363.8       1826.8118      908766.53      913299.58      909025.31     -3159.8921     -1407.5671     -1167.1341      7462.2529      11601.057      19063.31       132402.76      40.453461      40.453461      80.906921          16004 
    266000   3570.658       891787.1       1833.9848      895515.88      890022.5       889822.91      1278.1976      1994.5375     -4898.0824      7386.085       11338.492      18724.577      132834.27      40.49736       40.49736       80.99472           16004 
    267000   3617.1176      903234.95      1841.1553      902376.35      906992.26      900336.24      1434.7679     -4923.7534     -1774.2714      7482.189       11495.296      18977.485      132487.12      40.462051      40.462051      80.924101          16004 
    268000   3586.112       897563.95      1848.3276      899017.14      896983.65      896691.06     -1401.9198     -1681.3851      1371.2885      7418.0524      11409.446      18827.498      132674.61      40.481128      40.481128      80.962256          16004 
    269000   3595.6551      906310.58      1855.4993      907947.83      905882.73      905101.18      2128.4012     -129.2453      -4321.8076      7437.7927      11583.443      19021.236      132439.23      40.457175      40.457175      80.91435           16004 
    270000   3608.2105      895536.49      1862.6722      895616.95      895120.03      895872.48     -4849.9304      3724.7164      2536.5902      7463.7642      11432.215      18895.98       132767.24      40.490547      40.490547      80.981095          16004 
    271000   3630.5425      906118.26      1869.8463      906335.27      907477.97      904541.52     -2665.5179      2934.4002     -716.56391      7509.959       11473.659      18983.618      132498.76      40.463236      40.463236      80.926472          16004 
    272000   3576.076       899441.14      1877.0199      897321.41      898578.94      902423.08     -357.83292     -84.67542       1365.1669      7397.2924      11418.098      18815.39       132618.53      40.475424      40.475424      80.950847          16004 
    273000   3582.0525      901011.75      1884.1932      901422.11      900627.18      900985.96      2524.6731      3741.1063      261.03337      7409.655       11573.439      18983.094      132583.69      40.471879      40.471879      80.943758          16004 
    274000   3583.635       898832.4       1891.3669      899452.92      897644.97      899399.31     -4589.2232      2589.0322      1152.9296      7412.9285      11341.064      18753.992      132603.46      40.47389       40.47389       80.947781          16004 
    275000   3625.497       900813.96      1898.5396      901683.26      897226.47      903532.16      1468.8229      1474.1018     -2879.7858      7499.5221      11459.167      18958.689      132634.99      40.477098      40.477098      80.954197          16004 
    276000   3583.8906      899848.62      1905.717       901195.94      898778.55      899571.37     -79.105538      3399.3708     -2481.0633      7413.4574      11516.295      18929.752      132608.79      40.474433      40.474433      80.948865          16004 
    277000   3599.6701      897771.8       1912.89        899496.48      896930.38      896888.54      483.15079      4916.3754      1480.1418      7446.0979      11470.96       18917.058      132592.76      40.472802      40.472802      80.945604          16004 
    278000   3593.2684      900056.62      1920.0624      901832.69      901257.64      897079.53      702.93628      2183.8737      1139.004       7432.8558      11430.833      18863.689      132667.66      40.480421      40.480421      80.960842          16004 
    279000   3617.9407      904435.27      1927.2368      904024.63      904909.54      904371.62     -2984.8251     -5722.6671      3898.5893      7483.8915      11491.266      18975.157      132475.54      40.460872      40.460872      80.921744          16004 
    280000   3598.4706      893310.36      1934.4116      894848.66      894436.65      890645.79      4102.7816     -1057.4445      396.37185      7443.6167      11313.149      18756.766      132747.64      40.488554      40.488554      80.977108          16004 
    281000   3592.2076      910236.14      1941.5842      912150.78      909061.88      909495.76      3793.8107     -2133.3253      4037.5714      7430.6613      11622.78       19053.441      132348.98      40.447983      40.447983      80.895966          16004 
    282000   3602.2624      896057.53      1948.7592      897915.85      895365.83      894890.9       247.1182      -465.99286     -1837.3968      7451.4603      11390.297      18841.757      132760.86      40.489899      40.489899      80.979797          16004 
    283000   3601.9424      901656.65      1955.9324      901673.87      899092.62      904203.46     -1728.2152      183.15342     -2953.5938      7450.7983      11467.556      18918.355      132538.78      40.467309      40.467309      80.934618          16004 
    284000   3577.255       901541.94      1963.1042      901784.55      901738.24      901103.04      546.63736      1104.0481      4676.2826      7399.7312      11480.918      18880.649      132543.61      40.4678        40.4678        80.935601          16004 
    285000   3602.1582      897069.81      1970.277       897629.97      895280.23      898299.23      1226.5702      1906.2943      1589.953       7451.2446      11397.924      18849.168      132684.97      40.482182      40.482182      80.964363          16004 
    286000   3613.4742      906909.05      1977.451       906606.3       906962.35      907158.51      4840.7765      3384.0356     -576.93454      7474.6524      11506.208      18980.861      132418.98      40.455112      40.455112      80.910225          16004 
[...]
   3930000   4471.615       901154.42      7371.9515      900919.77      897520.57      905022.93     -53345.394     -5587.4618      2952.9182      9249.7596      23148.534      32398.293      120099.86      39.393182      39.393182      77.392765          16004 
   3931000   4520.2824      894198.25      7379.8097      890969.68      889072.49      902552.59     -51995.509      1925.7704      1723.1254      9350.4307      22935.099      32285.529      120300.64      39.415123      39.415123      77.435871          16004 
   3932000   4467.5958      906054.41      7387.6783      901944.59      902501.8       913716.85     -50341.372     -2342.3221      1030.5296      9241.4458      23192.077      32433.523      120036.3       39.386232      39.386232      77.37911           16004 
   3933000   4512.1257      903408.93      7395.5471      906129.71      898373.14      905723.94     -54644.158      247.62771      4680.5278      9333.5581      23110.043      32443.601      120018.93      39.384332      39.384332      77.375379          16004 
   3934000   4415.8225      897340.49      7403.4131      892335.51      893477.45      906208.5      -47305.262      1602.7306     -2867.2271      9134.35        23160.149      32294.499      120284.17      39.413324      39.413324      77.432336          16004 
   3935000   4431.596       896027.13      7411.2809      895672.89      892311.04      900097.46     -51681.791     -4303.4242      3322.3839      9166.9784      23176.941      32343.919      120194.55      39.403532      39.403532      77.4131            16004 
   3936000   4421.5157      907457.3       7419.1424      903472.37      903533.7       915365.83     -46812.244      2061.8366      816.79443      9146.1268      23319.244      32465.371      119977.54      39.379804      39.379804      77.366482          16004 
   3937000   4461.9563      904641.2       7427.008       898334.82      899834.6       915754.19     -52933.6        5531.4322     -4444.7984      9229.7802      23190.01       32419.79       120056.4       39.38843       39.38843       77.38343           16004 
   3938000   4410.8586      892251.21      7434.8715      885517.64      887878.74      903357.25     -53072.085     -1872.9691      1707.4387      9124.082       23117.667      32241.749      120374.13      39.423147      39.423147      77.451635          16004 
   3939000   4511.9426      903966.03      7442.7279      902777.17      902915.28      906205.63     -52129.991     -4892.6597      2472.6052      9333.1794      23126.454      32459.634      119984.5       39.380566      39.380566      77.367979          16004 
   3940000   4477.5614      899937.27      7450.5883      895181.14      897236.04      907394.65     -52624.548     -799.4153      -5866.3358      9262.06        23111.044      32373.104      120137.16      39.39726       39.39726       77.400777          16004 
   3941000   4436.9044      900278.37      7458.4452      898220.44      897531.31      905083.36     -51969.327     -1689.101      -659.02961      9177.9591      23159.934      32337.893      120199.23      39.404044      39.404044      77.414106          16004 
   3942000   4446.1869      901752.49      7466.3018      899106.89      900332.28      905818.31     -53042.077     -890.89369      3996.2669      9197.1604      23202.965      32400.126      120087.37      39.391816      39.391816      77.390082          16004 
   3943000   4454.3006      893489.85      7474.1534      891101.46      892102.94      897265.14     -53840.524      1681.6804     -5689.1278      9213.9439      23068.665      32282.609      120296.97      39.414722      39.414722      77.435083          16004 
   3944000   4464.1317      899927.04      7482.0142      899117.65      897184.83      903478.65     -51198.997     -4388.3854     -2508.2691      9234.2802      23154.989      32389.269      120104.85      39.393728      39.393728      77.393838          16004 
   3945000   4447.3956      904624.49      7489.8767      901489.98      900031.81      912351.67     -49854.602     -4391.7456      2039.8504      9199.6606      23227.554      32427.214      120037.18      39.386328      39.386328      77.379299          16004 
   3946000   4429.8491      892684.44      7497.7403      889497.86      889446.47      899108.98     -51521.706      1137.8855     -527.91939      9163.3649      23096.866      32260.231      120332.26      39.418575      39.418575      77.442654          16004 
   3947000   4446.8584      898692.77      7505.603       895433.87      894809.93      905834.5      -52467.956     -3902.8041      4977.2844      9198.5495      23177.801      32376.351      120124.61      39.395888      39.395888      77.398081          16004 
   3948000   4490.4623      905145.13      7513.4617      906515.5       902040.31      906879.57     -50067.517     -742.97559      2369.4219      9288.7462      23160.44       32449.186      119994.06      39.381611      39.381611      77.370033          16004 
   3949000   4487.8511      903604.21      7521.3218      900112.85      899435.13      911264.66     -45934.736      3949.9402      74.059383      9283.3449      23116.618      32399.963      120080.39      39.391053      39.391053      77.388584          16004 
   3950000   4453.8755      889917.08      7529.1811      889909.07      887986.29      891855.87     -51116.058      2648.4777      849.20837      9213.0647      23005.702      32218.767      120405.42      39.426563      39.426563      77.458346          16004 
   3951000   4490.9517      900407.92      7537.0411      896760.16      900187.28      904276.31     -51266.558     -5965.299       279.32818      9289.7585      23110.309      32400.068      120080.96      39.391116      39.391116      77.388706          16004 
   3952000   4507.9181      899625.87      7544.9076      894360.87      898409         906107.75     -49251.165     -2414.0407     -3440.7518      9324.8544      23066.033      32390.887      120096         39.39276       39.39276       77.391937          16004 
   3953000   4449.5733      900019.37      7552.7702      893695.71      897768.49      908593.9      -56655.897      1213.5454     -1215.9633      9204.1653      23194.121      32398.286      120082.35      39.391268      39.391268      77.389005          16004 
   3954000   4442.4245      889259.09      7560.6379      884437.91      887267.36      896071.99     -49622.373     -2371.3618     -1713.2504      9189.3776      23090.599      32279.976      120292.68      39.414253      39.414253      77.434162          16004 
   3955000   4452.1785      890382.37      7568.5014      885936.49      887468.81      897741.8      -52319.57       2064.6785     -0.39642619     9209.5542      23026.515      32236.07       120370.26      39.422724      39.422724      77.450804          16004 
   3956000   4475.6627      908160.8       7576.3613      906630.79      903013.5       914838.1      -54381.678      4402.5448     -2516.3679      9258.1326      23228.045      32486.178      119923.79      39.373922      39.373922      77.354928          16004 
   3957000   4446.9777      900633.89      7584.2264      900013.45      902385.97      899502.24     -50315.376     -1272.5245     -3809.884       9198.7962      23178.847      32377.643      120116.21      39.39497       39.39497       77.396278          16004 
   3958000   4471.3821      893992.55      7592.0834      890052.62      891406.23      900518.79     -50280.112     -5727.9605      1483.3672      9249.2779      23038.637      32287.915      120275.33      39.412358      39.412358      77.430439          16004 
   3959000   4505.895       902089.21      7599.9397      898846.9       894470.84      912949.89     -51025.643      1711.0243      913.45095      9320.6696      23115.019      32435.688      120009.98      39.383353      39.383353      77.373455          16004 
   3960000   4498.036       896205.22      7607.7985      893247.19      895368.61      899999.87     -53051.222      2058.7806     -3007.9874      9304.4127      23041.02       32345.433      120170.41      39.400894      39.400894      77.407917          16004 
   3961000   4446.8366      896734.9       7615.6581      893980.59      895363.09      900861.01     -49943.955     -2077.9285      1325.9327      9198.5043      23098.521      32297.026      120255.68      39.410211      39.410211      77.426222          16004 
   3962000   4505.4771      899965.53      7623.5129      895817.42      897135.57      906943.59     -51004.923      5787.3066     -4240.5349      9319.8052      23060.861      32380.666      120103.75      39.393608      39.393608      77.393602          16004 
   3963000   4456.249       904482.19      7631.3721      897902.61      903127.62      912416.33     -51767.888      158.36733     -34.653566      9217.9743      23241.976      32459.951      119961.91      39.378093      39.378093      77.363122          16004 
   3964000   4503.9441      895707.83      7639.2327      893341.82      894936.71      898844.97     -49650.062     -3599.5703      6512.5691      9316.6341      23029.801      32346.435      120163.6       39.40015       39.40015       77.406454          16004 
   3965000   4511.8477      897188.69      7647.0949      892016.87      896190.39      903358.83     -49702.143      3007.864      -2347.2171      9332.9831      22987.788      32320.771      120208.31      39.405036      39.405036      77.416053          16004 
   3966000   4432.0771      906080.24      7654.9551      900689.01      903665.93      913885.8      -54079.411      4920.8362      1033.3568      9167.9736      23249.709      32417.682      120035.81      39.386178      39.386178      77.379006          16004 
   3967000   4458.4572      896176.77      7662.8133      890620.17      894253.64      903656.5      -48611.532     -1960.3081      3506.3553      9222.5422      23126.216      32348.758      120158.12      39.399551      39.399551      77.405278          16004 
   3968000   4481.0768      899358.07      7670.6703      898412.62      897703.93      901957.67     -52117.04       2210.1924     -3680.8426      9269.3319      23053.551      32322.883      120203.96      39.404561      39.404561      77.415121          16004 
   3969000   4515.6334      905518.5       7678.5372      904522.3       902549.58      909483.63     -50365.06       760.16639     -1275.8012      9340.814       23104.959      32445.773      119983.98      39.380508      39.380508      77.367866          16004 
   3970000   4508.2866      902881.64      7686.3958      901468.66      900014.88      907161.39     -52930.158      52.638231      5520.3698      9325.6168      23121.875      32447.492      119979.01      39.379965      39.379965      77.366798          16004 
   3971000   4463.6084      896539.77      7694.2544      895108.98      891587.95      902922.38     -52376.089      403.58184     -366.17472      9233.1975      23052.58       32285.777      120265.66      39.411301      39.411301      77.428363          16004 
   3972000   4470.787       899611.78      7702.1171      901838.04      895599.23      901398.06     -50962.039      1650.4308     -2157.9421      9248.047       23097.488      32345.535      120158.5       39.399592      39.399592      77.405359          16004 
   3973000   4451.8869      902181.33      7709.9792      902691.36      898566.79      905285.83     -51438.351     -4487.3272      315.68234      9208.951       23197.623      32406.574      120048.53      39.387569      39.387569      77.381738          16004 
   3974000   4473.6213      900616.94      7717.8357      893959.75      896210.09      911680.98     -50482.688      498.10985     -4860.0819      9253.9098      23105.6        32359.51       120132.03      39.3967        39.3967        77.399677          16004 
   3975000   4463.0854      892731.49      7725.6982      886012.91      891478.2       900703.38     -50621.962     -4009.6765     -637.44312      9232.1157      23072.028      32304.144      120229.99      39.407405      39.407405      77.420709          16004 
   3976000   4459.6687      896236.76      7733.5606      896634.22      896787.41      895288.66     -48914.237     -4780.0441      12.299873      9225.0481      23091.973      32317.021      120207.2       39.404915      39.404915      77.415817          16004 
   3977000   4489.4566      905391.38      7741.4231      904328.88      899772.16      912073.1      -47254.217      3873.7084      1979.0095      9286.6659      23138.105      32424.771      120015.17      39.383921      39.383921      77.374571          16004 
   3978000   4462.8528      901393.83      7749.2835      897874.64      899385.06      906921.78     -51733.69       158.69721      4993.0128      9231.6346      23175.193      32406.828      120044.94      39.387177      39.387177      77.380968          16004 
   3979000   4482.0623      911437.01      7757.1499      907891.97      911716.63      914702.43     -53871.432      1066.8017      1876.324       9271.3704      23229.748      32501.118      119876.9       39.368789      39.368789      77.344843          16004 
   3980000   4464.6154      896994.03      7765.0135      896111.23      895331.84      899539.03     -51471.359      951.7767      -2789.8262      9235.2806      23065.797      32301.078      120230.89      39.407503      39.407503      77.420901          16004 
   3981000   4449.0434      894672.73      7772.8756      893263.07      888526.08      902229.03     -49545.854     -968.61472     -3327.4254      9203.0691      23099.842      32302.911      120227.06      39.407084      39.407084      77.420078          16004 
   3982000   4478.9898      901749.64      7780.7409      899763.47      897115.86      908369.61     -52935.526     -579.11545     -2644.9683      9265.0147      23113.73       32378.745      120090.77      39.392188      39.392188      77.390812          16004 
   3983000   4449.609       901099         7788.5982      903005.26      896335.89      903955.85     -54910.338      1387.3022     -3582.2676      9204.2392      23207.156      32411.395      120032.7       39.385838      39.385838      77.378337          16004 
   3984000   4456.2865      903401.7       7796.4638      898345.41      896695.14      915164.54     -51009.153     -1361.6399      611.76435      9218.052       23171.538      32389.59       120070.08      39.389926      39.389926      77.386369          16004 
   3985000   4441.6769      902708.67      7804.3234      898918.4       902054.59      907153.01     -50054.542      1776.7388     -1445.5691      9187.8311      23172.239      32360.07       120121.9       39.395592      39.395592      77.3975            16004 
   3986000   4461.0595      896570.03      7812.1842      889664.92      897756.69      902288.49     -49516.856      6.0687473      1296.5415      9227.9252      23062.667      32290.592      120244.69      39.409011      39.409011      77.423863          16004 
   3987000   4481.8395      900980.93      7820.0492      896593.61      902423.22      903925.96     -57970.169      26.10078       193.87694      9270.9096      23158.032      32428.942      119995.68      39.381788      39.381788      77.370381          16004 
   3988000   4504.366       906037.87      7827.9158      905633.83      907769.98      904709.79     -50624.813     -778.55414      1933.4191      9317.5068      23140.131      32457.638      119942         39.375915      39.375915      77.358842          16004 
   3989000   4536.2576      894097.3       7835.777       890866.74      891321.89      900103.28     -54661.273      666.55872      1995.8174      9383.4761      22930.88       32314.356      120195.64      39.403651      39.403651      77.413334          16004 
   3990000   4513.2311      898743.16      7843.6331      895515.26      898859.94      901854.29     -50765.917      6830.325      -1281.0626      9335.8447      23044.548      32380.393      120075.65      39.390535      39.390535      77.387564          16004 
   3991000   4512.0578      894807.77      7851.4936      891646.01      890816.94      901960.35     -51923.68      -7849.1149     -805.11283      9333.4177      23031.337      32364.754      120102.93      39.393518      39.393518      77.393425          16004 
   3992000   4468.861       902152.82      7859.3566      902128.15      899229.63      905100.66     -51690.139     -987.94175      4928.1199      9244.0629      23142.145      32386.208      120064.41      39.389307      39.389307      77.385152          16004 
   3993000   4524.7088      910759.08      7867.2225      906365.99      911624.48      914286.77     -50643.758      1019.5563     -2443.9744      9359.5868      23152.74       32512.326      119839.23      39.364665      39.364665      77.336741          16004 
   3994000   4513.8576      897179.85      7875.0802      896815.87      894643.5       900080.18     -52513.626     -1155.9961     -6414.8682      9337.1406      22980.741      32317.882      120183.27      39.402299      39.402299      77.410678          16004 
   3995000   4525.5028      902000.29      7882.944       900654.87      896694.01      908651.98     -53261.76      -7099.0927      5913.955       9361.2293      23052.258      32413.487      120012.13      39.383588      39.383588      77.373917          16004 
   3996000   4513.8325      903150.46      7890.8081      899190.28      898635.84      911625.26     -52195.72      -2139.1043     -1055.0283      9337.0887      23067.865      32404.953      120026.19      39.385126      39.385126      77.376939          16004 
   3997000   4521.7874      886009.06      7898.672       884975.42      888531.96      884519.8      -52025.053      3315.6354     -703.85428      9353.5438      22860.361      32213.905      120366.93      39.42236       39.42236       77.45009           16004 
   3998000   4515.2765      900312.47      7906.5351      898559.08      896644.28      905734.04     -53064.72      -3622.8865      8513.1419      9340.0757      23027.539      32367.615      120093.02      39.392434      39.392434      77.391296          16004 
   3999000   4493.5251      900798.66      7914.3986      898542.68      894329.98      909523.32     -49792.495     -2173.4688     -3147.4821      9295.0818      23083.029      32378.111      120074.44      39.390403      39.390403      77.387306          16004 
   4000000   4477.0744      897056.13      7922.2675      893983.75      891429.5       905755.13     -49587.195      7090.9027     -3350.3207      9261.0527      23076.277      32337.33       120145.94      39.39822       39.39822       77.402663          16004 
Loop time of 7922.27 on 8 procs for 1000000 steps with 16004 atoms

Performance: 5.453 ns/day, 4.401 hours/ns, 126.226 timesteps/s
59.8% CPU use with 1 MPI tasks x 8 OpenMP threads

MPI task timing breakdown:
Section |  min time  |  avg time  |  max time  |%varavg| %total
---------------------------------------------------------------
Pair    | 7644.7     | 7644.7     | 7644.7     |   0.0 | 96.50
Neigh   | 12.99      | 12.99      | 12.99      |   0.0 |  0.16
Comm    | 38.396     | 38.396     | 38.396     |   0.0 |  0.48
Output  | 1.3716     | 1.3716     | 1.3716     |   0.0 |  0.02
Modify  | 200.26     | 200.26     | 200.26     |   0.0 |  2.53
Other   |            | 24.56      |            |       |  0.31

Nlocal:          16004 ave       16004 max       16004 min
Histogram: 1 0 0 0 0 0 0 0 0 0
Nghost:          15554 ave       15554 max       15554 min
Histogram: 1 0 0 0 0 0 0 0 0 0
Neighs:              0 ave           0 max           0 min
Histogram: 1 0 0 0 0 0 0 0 0 0
FullNghs:  1.90763e+06 ave 1.90763e+06 max 1.90763e+06 min
Histogram: 1 0 0 0 0 0 0 0 0 0

Total # of neighbors = 1907628
Ave neighs/atom = 119.19695
Neighbor list builds = 33260
Dangerous builds = 0
Total wall time: 8:36:46
