
atom_style atomic
units metal
boundary p p p
#atom_modify sort 0 0.0
newton on

read_data data.lammps
Reading data file ...
  orthogonal box = (0 0 0) to (43.790145 43.790145 87.58029)
  1 by 1 by 1 MPI processor grid
  reading atoms ...
  16004 atoms
  read_data CPU = 0.041 seconds
# replicate 10 10 20

### interactions

pair_style flare
pair_coeff * * lmp.flare
Reading potential file lmp.flare with DATE: Thu

# compute unc all flare/std/atom L_inv_lmp.flare sparse_desc_lmp.flare
# compute MaxUnc all reduce max c_unc

mass 1 12.011000
mass 2 28.085000

thermo_style custom step temp press cpu pxx pyy pzz pxy pxz pyz ke pe etotal vol lx ly lz atoms    #c_MaxUnc
thermo 1000
timestep 0.0005
restart 100000 restart_*.dat

#################### Equilibrate at P and T_es ##############################
velocity all create $T 41928459 rot yes dist gaussian
velocity all create 2800 41928459 rot yes dist gaussian
fix mom all momentum 1000 linear 1 1 1 angular

fix 1 all npt temp $T $T $(100.0*dt) iso $P $P $(1000.0*dt)
fix 1 all npt temp 2800 $T $(100.0*dt) iso $P $P $(1000.0*dt)
fix 1 all npt temp 2800 2800 $(100.0*dt) iso $P $P $(1000.0*dt)
fix 1 all npt temp 2800 2800 0.050000000000000002776 iso $P $P $(1000.0*dt)
fix 1 all npt temp 2800 2800 0.050000000000000002776 iso 100000 $P $(1000.0*dt)
fix 1 all npt temp 2800 2800 0.050000000000000002776 iso 100000 100000 $(1000.0*dt)
fix 1 all npt temp 2800 2800 0.050000000000000002776 iso 100000 100000 0.5
dump 1 all custom 1000 1equil.bin id type x y z vx vy vz
run   10000 # report performance
Neighbor list info ...
  update every 1 steps, delay 10 steps, check yes
  max neighbors/atom: 2000, page size: 100000
  master list distance cutoff = 6
  ghost atom cutoff = 6
  binsize = 6, bins = 8 8 15
  1 neighbor lists, perpetual/occasional/extra = 1 0 0
  (1) pair flare/kk, perpetual
      attributes: full, newton on, kokkos_device
      pair build: full/bin/kk/device
      stencil: full/bin/3d
      bin: kk/device
Per MPI rank memory allocation (min/avg/max) = 15.9 | 15.9 | 15.9 Mbytes
   Step          Temp          Press           CPU            Pxx            Pyy            Pzz            Pxy            Pxz            Pyz           KinEng         PotEng         TotEng         Volume           Lx             Ly             Lz          Atoms   
         0   2800           57033.054      0              56698.886      57032.726      57367.549     -735.25824     -16.376755     -430.27097      5791.9403     -4000.2205      1791.7198      167941.93      43.790145      43.790145      87.58029           16004 
      1000   2770.8532      98500.769      6.3559725      98764.371      98445.951      98291.986     -646.56772      416.62853     -1035.0423      5731.6486      2300.0375      8031.6862      168720.83      43.857739      43.857739      87.715478          16004 
      2000   2827.2366      99578.952      12.669102      100553.6       99767.416      98415.837      1485.6273     -68.569721      882.15531      5848.2806      2317.6993      8165.9799      168742.94      43.859655      43.859655      87.719309          16004 
      3000   2787.9133      100651.77      18.981294      100001.76      101375.93      100577.61      210.64959     -354.25668     -1878.8351      5766.9383      2207.5358      7974.4741      168488.46      43.837595      43.837595      87.67519           16004 
      4000   2797.604       99910.192      25.289688      99580.449      100311.36      99838.77      -190.8589      -109.54052      618.24477      5786.9841      2391.2755      8178.2596      168748.7       43.860153      43.860153      87.720306          16004 
      5000   2783.5632      102152.21      31.600589      101885.65      101788.55      102782.41     -830.38456      1871.9559     -72.946202      5757.9399      2208.1608      7966.1007      168457.6       43.834919      43.834919      87.669837          16004 
      6000   2856.8875      98781.002      37.911924      98578.92       99173.319      98590.768     -2414.3851     -966.40745      1186.6827      5909.6149      2246.6379      8156.2528      168749.49      43.860222      43.860222      87.720444          16004 
      7000   2773.2421      98057.244      44.223133      98005.092      97811.724      98354.917     -160.00296      1973.1875      1142.7843      5736.5903      2255.2689      7991.8592      168761.36      43.861251      43.861251      87.722501          16004 
      8000   2797.2238      95180.25       50.531933      95821.272      95662.43       94057.048      318.18119      406.24716      806.87111      5786.1976      2257.8002      8043.9977      169010.68      43.882839      43.882839      87.765679          16004 
      9000   2792.2496      98111.37       56.837372      98435.994      98113.835      97784.281     -947.86428      763.74437     -432.04298      5775.9082      2295.6878      8071.596       168843.73      43.868385      43.868385      87.736771          16004 
     10000   2780.8246      101554.72      63.144857      101783.86      102196.39      100683.9      -1252.8216     -899.80325      509.50904      5752.2749      2291.8875      8044.1624      168542.74      43.842302      43.842302      87.684604          16004 
Loop time of 63.1449 on 8 procs for 10000 steps with 16004 atoms

Performance: 6.841 ns/day, 3.508 hours/ns, 158.366 timesteps/s
60.5% CPU use with 1 MPI tasks x 8 OpenMP threads

MPI task timing breakdown:
Section |  min time  |  avg time  |  max time  |%varavg| %total
---------------------------------------------------------------
Pair    | 60.182     | 60.182     | 60.182     |   0.0 | 95.31
Neigh   | 0.077681   | 0.077681   | 0.077681   |   0.0 |  0.12
Comm    | 0.33128    | 0.33128    | 0.33128    |   0.0 |  0.52
Output  | 0.013429   | 0.013429   | 0.013429   |   0.0 |  0.02
Modify  | 2.2763     | 2.2763     | 2.2763     |   0.0 |  3.60
Other   |            | 0.264      |            |       |  0.42

Nlocal:          16004 ave       16004 max       16004 min
Histogram: 1 0 0 0 0 0 0 0 0 0
Nghost:          13606 ave       13606 max       13606 min
Histogram: 1 0 0 0 0 0 0 0 0 0
Neighs:              0 ave           0 max           0 min
Histogram: 1 0 0 0 0 0 0 0 0 0
FullNghs:  1.38919e+06 ave 1.38919e+06 max 1.38919e+06 min
Histogram: 1 0 0 0 0 0 0 0 0 0

Total # of neighbors = 1389192
Ave neighs/atom = 86.802799
Neighbor list builds = 246
Dangerous builds = 0
run  990000
Per MPI rank memory allocation (min/avg/max) = 15.98 | 15.98 | 15.98 Mbytes
   Step          Temp          Press           CPU            Pxx            Pyy            Pzz            Pxy            Pxz            Pyz           KinEng         PotEng         TotEng         Volume           Lx             Ly             Lz          Atoms   
     10000   2780.8246      101554.72      0              101783.86      102196.39      100683.9      -1252.8216     -899.80325      509.50904      5752.2749      2291.8875      8044.1624      168542.74      43.842302      43.842302      87.684604          16004 
     11000   2821.0417      100393.76      6.3051063      100920.66      100994.54      99266.082     -1634.4277     -522.60632     -34.630048      5835.466       2284.4312      8119.8972      168596.33      43.846948      43.846948      87.693897          16004 
     12000   2805.2973      101556.46      12.610017      101210.74      101725.46      101733.17      712.58817     -508.08229     -1711.3443      5802.8981      2245.21        8048.1081      168530.01      43.841198      43.841198      87.682396          16004 
     13000   2815.0737      99424.344      18.916223      98833.454      99661.283      99778.294      499.7927       943.00425      2521.0003      5823.1209      2312.2047      8135.3257      168755.93      43.86078       43.86078       87.72156           16004 
     14000   2780.1166      97479.825      25.220821      97155.346      97480.871      97803.257     -1209.307       934.24457      436.65575      5750.8105      2241.3863      7992.1968      168811.27      43.865574      43.865574      87.731148          16004 
     15000   2822.501       94221.522      31.528067      93250.577      94811.525      94602.464     -526.93669      634.14878      2866.9039      5838.4847      2302.2333      8140.7179      169159.36      43.895704      43.895704      87.791407          16004 
     16000   2784.8538      97321.457      37.843863      96925.908      96901.995      98136.469      1213.68        601.00717     -2747.3712      5760.6095      2299.9883      8060.5978      168897.43      43.873035      43.873035      87.74607           16004 
     17000   2784.3979      101844.84      44.1744        101066.62      102199.96      102267.94      2494.6251      404.9775       249.529        5759.6665      2337.333       8096.9994      168626.82      43.849591      43.849591      87.699182          16004 
     18000   2834.0636      101560.03      50.506023      101843         101921.09      100916.02     -435.22477      170.4827      -441.64391      5862.4026      2267.386       8129.7885      168592.08      43.84658       43.84658       87.69316           16004 
     19000   2811.4123      101325.67      56.829042      101069.1       101265.15      101642.76      1678.9084     -2037.6629      321.93563      5815.5473      2315.4976      8131.0449      168602.18      43.847456      43.847456      87.694911          16004 
     20000   2800.021       99975.223      63.154005      100362.79      100689.41      98873.466      711.16664      1555.853      -1450.2757      5791.9837      2253.1134      8045.0971      168644.9       43.851158      43.851158      87.702316          16004 
     21000   2800.0453      98927.571      69.479849      99061.35       98484.928      99236.433     -916.20895     -225.15068     -1704.0857      5792.0341      2299.525       8091.5591      168743.18      43.859676      43.859676      87.719351          16004 
     22000   2800.1627      100684.99      75.808084      101606.58      100440.76      100007.63      2462.113      -110.85493     -1441.7088      5792.2767      2198.0322      7990.309       168564.97      43.84423       43.84423       87.688459          16004 
     23000   2806.6529      100833.61      82.138868      100680.86      100986.93      100833.05     -1228.9915     -1180.7539      347.91593      5805.7022      2283.5205      8089.2226      168579.26      43.845469      43.845469      87.690937          16004 
     24000   2790.557       101171.8       88.466581      100278.48      102299.62      100937.3       654.61038      319.79297     -556.44836      5772.407       2267.0539      8039.4609      168585.62      43.84602       43.84602       87.69204           16004 
     25000   2777.8916      98833.985      94.791607      98701.996      99733.988      98065.973      76.19702       546.62972      1065.6664      5746.208       2297.4826      8043.6905      168789.21      43.863663      43.863663      87.727326          16004 
     26000   2783.9715      98855.17       101.11792      98865.936      98060.819      99638.756      1052.5534      813.98415     -1565.9949      5758.7845      2295.8899      8054.6744      168737.97      43.859224      43.859224      87.718448          16004 
     27000   2812.1992      100472.08      107.4513       100786.92      100872.44      99756.89       255.20882     -1819.5913      1040.1895      5817.175       2257.6477      8074.8227      168677.12      43.853951      43.853951      87.707902          16004 
     28000   2761.9851      100557.65      113.77574      100248.46      100521.31      100903.19      980.82338      815.25571     -962.37061      5713.3046      2275.3199      7988.6245      168549.35      43.842875      43.842875      87.685751          16004 
     29000   2817.9528      99073.302      120.10397      99435.692      97715.348      100068.86      501.14213     -701.80532     -1083.0829      5829.0766      2260.3295      8089.4061      168698.42      43.855797      43.855797      87.711593          16004 
     30000   2817.1797      100582.22      126.42913      99068.198      101263.12      101415.34      1339.0006     -2723.1158     -337.53913      5827.4774      2256.8351      8084.3125      168647.38      43.851373      43.851373      87.702747          16004 
     31000   2807.7418      101457.04      132.75739      101800.34      101091.98      101478.79     -25.133691     -1041.4767     -3754.1573      5807.9545      2308.0046      8115.9591      168613.75      43.848459      43.848459      87.696918          16004 
     32000   2776.132       104370.08      139.08786      105796.44      104545.5       102768.32      2435.3282     -463.57471     -484.95005      5742.5681      2237.9192      7980.4872      168337.92      43.824535      43.824535      87.64907           16004 
     33000   2782.6624      99548.167      145.41781      98469.827      99192.429      100982.24     -744.20039      784.32944     -125.30849      5756.0766      2314.0838      8070.1604      168729.43      43.858484      43.858484      87.716968          16004 
     34000   2797.9547      97722.366      151.74075      96931.236      97576.113      98659.75      -29.073718      702.03103     -842.277        5787.7095      2286.4776      8074.1871      168843.43      43.868359      43.868359      87.736719          16004 
     35000   2790.9246      99242.972      158.06866      98966.893      99935.501      98826.521     -491.51911      816.46745     -52.467277      5773.1673      2262.0461      8035.2134      168773.22      43.862277      43.862277      87.724555          16004 
     36000   2793.8071      100003.28      164.39465      99431.193      100279.83      100298.82      627.35982      272.84536     -1490.851       5779.13        2293.1716      8072.3016      168779.38      43.862811      43.862811      87.725623          16004 
     37000   2812.0155      103312.73      170.72378      103923.14      102654.58      103360.48      957.77776      565.31173     -2017.6359      5816.795       2214.5265      8031.3214      168447.83      43.834071      43.834071      87.668143          16004 
     38000   2832.9487      100397.4       177.05522      99374.412      101215.25      100602.55      799.24023      853.18412     -1147.7859      5860.0962      2247.8726      8107.9688      168640.17      43.850749      43.850749      87.701498          16004 
     39000   2782.5158      98453.233      183.37917      98474.653      98590.923      98294.123     -910.41077      288.81005     -586.11349      5755.7733      2253.6429      8009.4162      168748.49      43.860136      43.860136      87.720271          16004 
     40000   2809.2807      98282.215      189.70554      96416.238      99290.483      99139.922      360.41408     -647.71033     -501.19274      5811.1379      2325.378       8136.5159      168885.3       43.871985      43.871985      87.743971          16004 
     41000   2805.069       97956.618      196.03071      98648.274      97609.47       97612.109      894.04422      320.34252      238.91327      5802.4257      2214.0562      8016.4819      168747.59      43.860057      43.860057      87.720114          16004 
     42000   2781.7345      99723.642      202.35653      99342.048      100275.51      99553.364     -22.865751     -1050.2727     -486.86843      5754.1572      2283.8575      8038.0147      168643.94      43.851075      43.851075      87.70215           16004 
     43000   2795.0303      102792.74      208.68281      102943.84      102395.97      103038.42     -1079.811      -862.93588      837.34157      5781.6602      2238.5523      8020.2125      168424.59      43.832056      43.832056      87.664111          16004 
     44000   2809.7413      101462.77      215.00924      101869.72      100931.66      101586.93      687.79723     -80.510904      791.91156      5812.0906      2269.6329      8081.7235      168578.99      43.845445      43.845445      87.69089           16004 
     45000   2770.9617      102496.05      221.33476      103147.64      102097.18      102243.32     -437.99619     -588.04485      1226.4069      5731.8731      2247.577       7979.4501      168416.84      43.831383      43.831383      87.662766          16004 
     46000   2787.2746      101383.33      227.66606      100201.96      101396.36      102551.66      157.65784      606.97706     -1715.5509      5765.6172      2295.2478      8060.865       168521.9       43.840495      43.840495      87.680991          16004 
     47000   2807.8873      99276.355      233.99542      99509.919      98215.948      100103.2      -1582.2613      1515.4132      1453.0843      5808.2556      2271.1012      8079.3568      168723.86      43.858001      43.858001      87.716003          16004 
     48000   2750.442       94822.697      240.32611      95927.81       94864.088      93676.191      966.90949     -683.19182     -272.88841      5689.4271      2203.7501      7893.1772      168979.37      43.880129      43.880129      87.760258          16004 
     49000   2807.2299      96203.768      246.65167      96239.845      96632.534      95738.925     -434.16046     -241.56017      826.04288      5806.8958      2284.921       8091.8168      169001.59      43.882053      43.882053      87.764106          16004 
     50000   2758.1938      99054.025      252.98096      99384.221      99701.204      98076.649      624.22263     -217.685       -1096.3809      5705.462       2244.9375      7950.3994      168656.91      43.852199      43.852199      87.704399          16004 
     51000   2811.0118      99738.864      259.31026      100541.89      99224.966      99449.732      1129.6986     -822.73561     -1431.2132      5814.7187      2302.3714      8117.0901      168673.25      43.853616      43.853616      87.707231          16004 
     52000   2840.1157      99253.538      265.63597      99219.158      98726.699      99814.759      1108.2833     -814.24138      185.14997      5874.9217      2247.5003      8122.4219      168753.11      43.860536      43.860536      87.721071          16004 
     53000   2802.6499      100198.28      271.96151      100160.21      100064.16      100370.46     -153.64918     -1666.8704      829.8259       5797.4218      2232.6208      8030.0426      168665.19      43.852917      43.852917      87.705834          16004 
     54000   2813.3821      98128.152      278.28999      97237.537      98859.397      98287.521      559.03837     -346.72074      116.00182      5819.6219      2287.3317      8106.9536      168852.84      43.869174      43.869174      87.738348          16004 
     55000   2796.5652      96954.109      284.61123      98075.678      97170.219      95616.43      -868.09195      2263.9329      916.7216       5784.8352      2220.7636      8005.5989      168859.79      43.869776      43.869776      87.739552          16004 
     56000   2771.01        98113.585      290.93974      99029.234      98299.672      97011.848     -515.04409      1505.8252      1130.0618      5731.9729      2285.0885      8017.0614      168830.65      43.867253      43.867253      87.734505          16004 
     57000   2800.4871      99750.687      297.26255      98512.164      100442.66      100297.23      1471.5027      525.64787      1604.0565      5792.9479      2291.2092      8084.157       168683.66      43.854518      43.854518      87.709036          16004 
     58000   2813.3593      102455.28      303.58822      101626.49      102978.78      102760.58     -230.96521     -216.00537      343.26808      5819.5747      2312.791       8132.3656      168524.6       43.84073       43.84073       87.681459          16004 
     59000   2828.3744      100032.56      309.91485      100448.48      98884.612      100764.59     -1361.6775     -753.06963      315.9054       5850.6342      2221.9559      8072.5901      168664.66      43.852872      43.852872      87.705743          16004 
     60000   2816.5578      99979.262      316.24034      100171.86      99745.993      100019.93      224.74488     -841.91613     -634.7971       5826.1908      2247.2218      8073.4126      168679.52      43.854159      43.854159      87.708317          16004 
     61000   2789.6849      103262.33      322.57226      103054.45      103511.05      103221.49      408.24408      2335.6222     -203.88009      5770.603       2262.9671      8033.5701      168466.27      43.835671      43.835671      87.671342          16004 
     62000   2807.7048      104871.3       328.90064      105705.32      104350.45      104558.13      720.95977     -1061.8689     -420.61209      5807.878       2267.3164      8075.1944      168303.49      43.821548      43.821548      87.643095          16004 
     63000   2802.6889      101424.16      335.22681      100917.85      101800.6       101554.02      532.1946       1034.678       1915.0292      5797.5024      2259.6563      8057.1587      168516.56      43.840032      43.840032      87.680064          16004 
     64000   2814.5967      98093.915      341.55743      98208.03       98952.517      97121.199      1186.1352     -1042.898       686.45425      5822.1343      2237.106       8059.2403      168725.69      43.85816       43.85816       87.71632           16004 
     65000   2820.1091      99966.959      347.88934      99453.088      100424.74      100023.05     -840.52003     -986.66588      924.0221       5833.537       2232.2839      8065.8208      168659.83      43.852453      43.852453      87.704905          16004 
     66000   2775.7147      100792.88      354.21458      101910.36      99943.989      100524.28      443.94999     -151.42886      534.81172      5741.7049      2202.1424      7943.8473      168466.18      43.835663      43.835663      87.671325          16004 
     67000   2795.7868      100386.47      360.54523      101175.97      99456.187      100527.27     -921.36019     -495.48308     -2129.8392      5783.2251      2312.4895      8095.7146      168675.45      43.853807      43.853807      87.707613          16004 
     68000   2800.3799      99709.861      366.86769      99396.505      100335.6       99397.472      972.80758     -817.1427       1305.8005      5792.7261      2188.3101      7981.0361      168552.8       43.843174      43.843174      87.686349          16004 
     69000   2827.634       99807.746      373.19239      99295.653      99691.582      100436         712.99411     -472.77915     -3054.1808      5849.1025      2247.5965      8096.699       168737.2       43.859157      43.859157      87.718313          16004 
     70000   2797.0224      98041.572      379.51924      97832.124      99720.814      96571.779     -1456.3067     -325.17872     -57.908849      5785.7809      2194.2523      7980.0332      168736.89      43.85913       43.85913       87.718261          16004 
     71000   2829.2236      98358.606      385.84212      96881.512      99168.918      99025.389     -901.84034      610.29795     -1984.5383      5852.3908      2288.6759      8141.0666      168865.7       43.870287      43.870287      87.740575          16004 
     72000   2786.3317      101181.01      392.16506      101259.57      100899.81      101383.64     -832.56714      733.15792     -1233.6084      5763.6666      2272.99        8036.6566      168531.91      43.841363      43.841363      87.682726          16004 
     73000   2813.7753      102470.83      398.48817      102320.26      103092.28      101999.94     -783.61756     -382.98911      1791.9349      5820.4351      2334.8263      8155.2614      168517.5       43.840114      43.840114      87.680228          16004 
     74000   2807.9273      103090.98      404.81105      103292.87      103521.65      102458.43      240.46686      253.03219     -2320.1871      5808.3383      2300.9205      8109.2588      168480.56      43.83691       43.83691       87.673821          16004 
     75000   2788.9935      100565.7       411.13994      101122.31      100313.53      100261.27      293.73696     -43.250746      803.13562      5769.1728      2227.8269      7996.9997      168608.01      43.847961      43.847961      87.695922          16004 
     76000   2789.0316      100808.54      417.46386      100490.36      100601.53      101333.73      47.013886     -414.60699     -1607.6775      5769.2517      2306.918       8076.1697      168695.68      43.85556       43.85556       87.711119          16004 
     77000   2805.3766      97574.106      423.79284      97085.947      98142.828      97493.543     -407.16735     -1703.3427      848.15924      5803.0621      2290.5973      8093.6593      168861.63      43.869935      43.869935      87.73987           16004 
     78000   2738.9115      98096.547      430.12129      98547.534      98043.295      97698.811      136.98656      1264.0318      67.662561      5665.5756      2296.6958      7962.2714      168814.39      43.865844      43.865844      87.731688          16004 
     79000   2795.2544      94664.376      436.44745      94416.149      93730.961      95846.019     -1657.9873     -288.75539     -1961.1178      5782.1237      2270.0063      8052.1301      169119.28      43.892236      43.892236      87.784472          16004 
     80000   2784.6324      99341.276      442.78429      99613.563      98230.675      100179.59      2043.825       745.09122     -1832.894       5760.1516      2230.7079      7990.8594      168739.65      43.859369      43.859369      87.718738          16004 
     81000   2785.845       99720.764      449.11608      100151.54      99559.631      99451.12       217.34932     -1358.3863     -674.41414      5762.66        2342.0504      8104.7104      168739.87      43.859389      43.859389      87.718777          16004 
     82000   2778.2585      100374.16      455.4479       101297.05      99411.709      100413.73      135.20766      1014.5272     -1356.9151      5746.9669      2248.6804      7995.6474      168564.08      43.844153      43.844153      87.688305          16004 
     83000   2808.2325      103647.98      461.77488      104953.62      102090.12      103900.19     -578.59641     -58.038773     -1418.5161      5808.9695      2260.7118      8069.6813      168401.13      43.83002       43.83002       87.66004           16004 
     84000   2785.9981      103845.06      468.0991       103828.17      103277.36      104429.65     -1551.779       303.18849     -489.01046      5762.9767      2321.7821      8084.7588      168406.7       43.830503      43.830503      87.661006          16004 
     85000   2771.5728      98548.235      474.42891      98916.66       98562.265      98165.779     -329.35434     -863.88592      153.97764      5733.1371      2301.86        8034.9971      168735.1       43.858975      43.858975      87.71795           16004 
     86000   2823.7228      95665.924      480.7551       95698.536      95139.602      96159.634     -1325.9888      975.35352      1194.3333      5841.0121      2249.4417      8090.4538      168993.43      43.881346      43.881346      87.762692          16004 
     87000   2768.0777      98362.482      487.0805       97567.223      98214.569      99305.655      1117.6891      596.39257      1570.4142      5725.9074      2218.6477      7944.5551      168705.3       43.856393      43.856393      87.712787          16004 
     88000   2796.0056      100677.92      493.40626      100372.5       99521.1        102140.17      1345.286      -678.43738      1010.7572      5783.6776      2320.0999      8103.7776      168703.5       43.856237      43.856237      87.712473          16004 
     89000   2805.9793      102806.41      499.73172      103040.39      103106.32      102272.51     -21.442124     -1475.9953      531.39935      5804.3087      2277.2143      8081.523       168477.69      43.836661      43.836661      87.673322          16004 
     90000   2822.0951      104115.84      506.05889      103070.89      104384.94      104891.68      977.83585     -441.83138      1476.78        5837.6451      2270.3985      8108.0437      168410.35      43.83082       43.83082       87.66164           16004 
     91000   2770.4977      101182.44      512.3889       100584.1       100932.79      102030.44      1783.5197      496.64591     -626.68526      5730.9133      2295.7197      8026.6331      168563.96      43.844142      43.844142      87.688285          16004 
     92000   2804.4712      96702.838      518.71631      96403.88       97657.774      96046.861      219.3286       1495.6199     -413.21998      5801.1892      2273.0455      8074.2348      168913.31      43.874411      43.874411      87.748821          16004 
     93000   2813.7581      98307.453      525.04259      99090.635      97833.61       97998.114     -1455.9064     -665.63402     -682.0014       5820.3996      2205.2622      8025.6618      168778.08      43.862698      43.862698      87.725397          16004 
     94000   2798.1561      99649.339      531.37194      99141.093      100913.67      98893.259      39.789237      1649.1712     -1636.5159      5788.1261      2286.0854      8074.2115      168706.62      43.856508      43.856508      87.713015          16004 
     95000   2781.2984      99905.166      537.70549      99409.505      100366.72      99939.274     -1012.2346     -290.72186      528.26482      5753.2551      2244.9506      7998.2057      168670.39      43.853368      43.853368      87.706736          16004 
     96000   2832.7409      100010.84      544.0344       100574.18      100262.43      99195.906     -325.70257      647.66151     -293.28893      5859.6665      2217.2309      8076.8974      168668.19      43.853177      43.853177      87.706355          16004 
     97000   2775.4548      101325.35      550.35969      100442.59      102477.47      101056         1830.4689      1647.4964      1248.9241      5741.1673      2243.0166      7984.1839      168466.41      43.835683      43.835683      87.671366          16004 
     98000   2805.6144      99720.283      556.6819       100328.65      100149.06      98683.141      679.733       -753.07463      556.33451      5803.554       2301.063       8104.617       168686.75      43.854786      43.854786      87.709571          16004 
     99000   2766.5776      99508.257      563.00798      100073.37      98532.45       99918.952      1017.8493      703.76238     -1278.4545      5722.8045      2225.0121      7947.8166      168638.27      43.850584      43.850584      87.701168          16004 
    100000   2809.0949      95772.043      569.3442       95130.957      95936.379      96248.792      2401.5107      200.88823      210.04819      5810.7536      2260.3924      8071.146       168971.55      43.879452      43.879452      87.758905          16004 
    101000   2786.1295      99227.797      575.66667      97438.353      101435.37      98809.67       2025.2366      686.17903      1159.3434      5763.2485      2302.4467      8065.6952      168672.93      43.853588      43.853588      87.707176          16004 
    102000   2827.9158      106249.93      581.98959      106320.59      105427.9       107001.28      853.1482       2216.2515      395.62073      5849.6856      2304.4696      8154.1552      168268.18      43.818483      43.818483      87.636965          16004 
    103000   2807.9292      103685.97      588.29637      104014.29      103179.15      103864.47      692.85928      3029.8166     -645.46127      5808.3421      2263.5736      8071.9157      168449.98      43.834258      43.834258      87.668516          16004 
    104000   2810.313       100524.07      594.61724      98828.539      100986.63      101757.04     -761.57448      1248.6239     -1716.9178      5813.2733      2321.2284      8134.5017      168731.6       43.858672      43.858672      87.717343          16004 
    105000   2807.7189      100383.18      600.94227      99758.639      100597.55      100793.36     -462.77334     -1499.2682      794.06996      5807.9072      2217.0231      8024.9303      168629.6       43.849832      43.849832      87.699665          16004 
    106000   2837.9566      99237.097      607.26077      99606.235      99384.682      98720.375      822.49092     -275.41448      134.50675      5870.4554      2290.1946      8160.65        168758.92      43.861039      43.861039      87.722078          16004 
    107000   2779.7521      99731.288      613.5891       98974.143      100057.72      100162        -186.21894     -511.73323     -650.65093      5750.0565      2295.9828      8046.0393      168682.97      43.854458      43.854458      87.708915          16004 
    108000   2830.1195      96697.538      619.91504      96021.326      97436.252      96635.037     -578.33773      2118.5314     -1094.7908      5854.2439      2342.3095      8196.5534      168960.33      43.878481      43.878481      87.756961          16004 
    109000   2801.7076      97856.489      626.24438      97426.897      98293.903      97848.666     -1846.8511      2054.5139     -600.68196      5795.4725      2267.0484      8062.5209      168829.12      43.867119      43.867119      87.734239          16004 
    110000   2790.5329      100696.3       632.57751      101040.45      100698.62      100349.85      401.49951      413.78492     -550.20135      5772.3571      2341.5112      8113.8682      168633.2       43.850144      43.850144      87.700288          16004 
    111000   2807.0923      103600.21      638.90232      104494.39      102783.31      103522.94      750.64745      621.04674      590.18154      5806.6111      2331.8256      8138.4366      168427.04      43.832268      43.832268      87.664535          16004 
    112000   2798.8779      101408.15      645.23035      100920.19      102215.66      101088.59      2302.8788      639.70407      660.2542       5789.6192      2260.9791      8050.5983      168606.65      43.847843      43.847843      87.695686          16004 
    113000   2768.5527      95749.999      651.55706      95168.029      96717.057      95364.911     -537.92472     -196.19993     -675.59642      5726.89        2328.9728      8055.8628      168998.38      43.881775      43.881775      87.763549          16004 
    114000   2775.7334      98178.596      657.88489      98719.395      98160.997      97655.395     -260.49583      866.626        100.92371      5741.7436      2246.012       7987.7556      168825.46      43.866803      43.866803      87.733605          16004 
    115000   2792.4916      98458.65       664.20761      97988.775      98383.889      99003.284     -1009.3598      879.29322     -273.8714       5776.4088      2295.3772      8071.786       168813.53      43.86577       43.86577       87.731539          16004 
    116000   2773.657       100952.63      670.5323       99938.267      100538.9       102380.72     -278.87827     -617.53939     -771.17724      5737.4486      2253.1945      7990.6431      168533.54      43.841504      43.841504      87.683008          16004 
    117000   2808.1951      102266.69      676.85405      102973.52      101605.19      102221.35     -10.975816     -227.952        1582.8784      5808.8922      2285.0975      8093.9897      168507.74      43.839267      43.839267      87.678534          16004 
    118000   2805.388       101472.93      683.18255      101518.76      100964.71      101935.32     -1069.0663      571.93525     -1548.4253      5803.0856      2337.2617      8140.3474      168613.41      43.848429      43.848429      87.696859          16004 
    119000   2813.6287      98831.388      689.50901      99059.653      98540.441      98894.07       111.02008     -2192.641      -43.676274      5820.1318      2273.2431      8093.3749      168786.98      43.86347       43.86347       87.72694           16004 
    120000   2781.622       96764.77       695.8382       96675.778      96459.887      97158.646     -1158.1037     -128.07771      45.154474      5753.9246      2242.9308      7996.8553      168874.73      43.871069      43.871069      87.742139          16004 
    121000   2786.1177      97150.869      702.16848      97049.597      97673.467      96729.543     -1041.3646     -425.08072     -54.833956      5763.224       2182.738       7945.962       168829.01      43.86711       43.86711       87.734221          16004 
    122000   2819.5707      100175.31      708.49754      100139.86      100003.39      100382.67      299.25874      176.5837      -73.13017       5832.4232      2271.5923      8104.0155      168639.09      43.850655      43.850655      87.701309          16004 
    123000   2796.9698      102537.06      714.83165      102748.36      103024.59      101838.22     -2221.7095     -731.33117     -1022.1469      5785.6722      2203.2185      7988.8907      168374.47      43.827707      43.827707      87.655415          16004 
    124000   2787.4546      100847.94      721.16622      100829.08      100642.54      101072.19      1546.5018     -1519.9632     -2166.6773      5765.9895      2311.8785      8077.868       168590.99      43.846486      43.846486      87.692971          16004 
    125000   2807.6322      99403.158      727.49505      98720.113      99882.062      99607.299     -434.05762      375.75149     -1303.0681      5807.7278      2192.2429      7999.9706      168598.76      43.847159      43.847159      87.694319          16004 
    126000   2804.0075      97901.862      733.82087      97195.997      98615.299      97894.288     -1530.8997     -682.22129     -2.4449186      5800.23        2248.2274      8048.4574      168794.38      43.864111      43.864111      87.728221          16004 
    127000   2826.8306      97615.482      740.14718      99329.422      97970.205      95546.819      156.9142      -1282.1637     -220.53258      5847.4407      2273.7275      8121.1683      168861.57      43.86993       43.86993       87.739861          16004 
    128000   2816.2398      97564.488      746.4714       97864.642      97933.946      96894.878      565.09898      1273.5033     -1164.4385      5825.5331      2261.7857      8087.3189      168846.68      43.868641      43.868641      87.737281          16004 
    129000   2793.1236      98898.691      752.79634      99328.892      98220.261      99146.922     -915.54617     -844.86126     -550.1789       5777.7161      2278.6954      8056.4115      168727.07      43.858279      43.858279      87.716558          16004 
    130000   2796.2811      98988.734      759.11947      99825.805      99593.229      97547.17       143.09501     -519.41169      427.40056      5784.2476      2290.2048      8074.4524      168730.04      43.858537      43.858537      87.717074          16004 
    131000   2786.1256      102687.49      765.44554      102841.04      102546.91      102674.52      626.40854     -135.62497      1904.2637      5763.2403      2205.5161      7968.7564      168417.23      43.831416      43.831416      87.662833          16004 
    132000   2801.6365      101915.04      771.772        101526.61      101758.69      102459.82      813.62211     -967.83304      1586.4262      5795.3255      2286.9446      8082.2702      168489.08      43.837649      43.837649      87.675298          16004 
    133000   2799.5739      106885.16      778.10009      108242.96      106772.03      105640.49     -1570.7174     -529.03454      825.83348      5791.059       2380.8754      8171.9344      168242.43      43.816247      43.816247      87.632495          16004 
    134000   2786.0447      102237.89      784.42702      101763.03      101709.01      103241.64     -2058.3555     -1072.7602      574.57438      5763.073       2266.2448      8029.3178      168464.76      43.83554       43.83554       87.67108           16004 
    135000   2766.1615      98581.755      790.7579       98458.455      98518.691      98768.12      -201.88587      86.956793      1114.8163      5721.9437      2313.371       8035.3146      168847.37      43.8687        43.8687        87.7374            16004 
    136000   2815.3858      97573.342      797.08331      98228.061      96746.968      97744.996      1326.8291     -1202.7491     -2542.5448      5823.7667      2293.7924      8117.559       168889.63      43.87236       43.87236       87.74472           16004 
    137000   2803.3335      98823.301      803.41461      99323.105      98290.154      98856.645      1426.6622      1765.4917     -902.53141      5798.8358      2219.9705      8018.8063      168722.91      43.857919      43.857919      87.715838          16004 
    138000   2799.3113      96067.804      809.7484       96466.668      95784.922      95951.822     -1419.9452     -290.97207     -366.07927      5790.5157      2229.095       8019.6107      168954.75      43.877998      43.877998      87.755997          16004 
    139000   2822.3412      98036.847      816.07795      97992.025      98748.694      97369.82       652.70707     -123.47884     -976.72648      5838.1542      2238.7783      8076.9325      168768.69      43.861885      43.861885      87.723771          16004 
    140000   2813.674       102252.05      822.40939      101885.29      101865.49      103005.37      710.4248       356.68579     -2922.6324      5820.2257      2246.7193      8066.945       168533.36      43.841489      43.841489      87.682978          16004 
    141000   2813.6145      101630.51      828.7322       101069.78      100598.75      103223        -756.62159      507.73056     -764.54873      5820.1025      2277.8913      8097.9937      168548.36      43.84279       43.84279       87.685579          16004 
    142000   2787.6585      101454.3       835.06049      102846.72      100419.47      101096.71      2067.6915      62.938522      292.82151      5766.4112      2309.2423      8075.6535      168517.39      43.840104      43.840104      87.680208          16004 
    143000   2797.6491      101692.17      841.38761      101655.75      101486.64      101934.11      1106.8849     -1594.5976      909.406        5787.0774      2306.1086      8093.186       168634.6       43.850266      43.850266      87.700532          16004 
    144000   2799.7687      99825.623      847.71225      99656.618      100109.8       99710.454      1510.9286     -338.77589     -220.85738      5791.4618      2263.6696      8055.1314      168804.64      43.865         43.865         87.729999          16004 
    145000   2782.8684      96883.784      854.03907      96908.028      95231.39       98511.933      1459.8444      613.11886     -794.99248      5756.5026      2286.0806      8042.5833      168951.19      43.87769       43.87769       87.75538           16004 
    146000   2799.6252      99908.053      860.3636       98876.837      99241.434      101605.89      1809.2159     -86.019091      843.92081      5791.1649      2202.3837      7993.5486      168638.22      43.850579      43.850579      87.701159          16004 
    147000   2801.481       102438.96      866.68882      102191.64      102474.54      102650.71      280.71616     -6.8264767     -158.82106      5795.0037      2248.5361      8043.5399      168497         43.838335      43.838335      87.676671          16004 
    148000   2795.4491      102148.89      873.01664      100551.1       102650.28      103245.29      1249.6115     -1567.5545      1545.7588      5782.5266      2329.9069      8112.4334      168547.39      43.842705      43.842705      87.68541           16004 
    149000   2789.1059      103970.01      879.34544      104192.62      103441.8       104275.6       875.83308     -3306.5078     -563.23326      5769.4053      2271.4316      8040.8369      168335.86      43.824357      43.824357      87.648713          16004 
    150000   2813.5534      99281.061      885.67489      97284.865      101002.53      99555.783      1547.5459     -975.06073      552.09632      5819.9762      2278.9221      8098.8983      168736.89      43.85913       43.85913       87.718261          16004 
    151000   2801.0466      96891.772      892.00784      97242.658      97552.3        95880.357      903.47554     -1909.7294     -899.95615      5794.1052      2231.5816      8025.6867      168873.56      43.870969      43.870969      87.741937          16004 
    152000   2829.9632      98226.516      898.3374       97892.255      98270.707      98516.585     -53.764201      865.23552      841.03112      5853.9207      2200.0368      8053.9575      168804.12      43.864955      43.864955      87.729909          16004 
    153000   2806.4545      100132.85      904.67142      100182.23      100797.52      99418.803     -1870.4602     -1024.889      -49.760063      5805.2917      2283.2702      8088.5619      168719.98      43.857665      43.857665      87.71533           16004 
    154000   2794.3665      102404.61      911.00412      102502.18      102014.2       102697.44     -287.37597      1137.5073      1877.5744      5780.2871      2229.1647      8009.4517      168451.38      43.834379      43.834379      87.668759          16004 
    155000   2811.2342      100624.74      917.33474      100757.97      101129.85      99986.399     -569.27799      595.52656     -683.12165      5815.1788      2280.0453      8095.2241      168618.62      43.848881      43.848881      87.697761          16004 
    156000   2769.0344      100527.63      923.66039      100462.7       101483.49      99636.686      303.98959     -1500.5492     -649.88696      5727.8864      2266.925       7994.8113      168678.33      43.854056      43.854056      87.708111          16004 
    157000   2801.0379      96354.403      929.98709      95687.104      97033.126      96342.98       90.420085     -904.43664     -784.86794      5794.0872      2271.5791      8065.6663      168965.53      43.878931      43.878931      87.757862          16004 
    158000   2790.2586      100119.5       936.31335      100203.22      99783.867      100371.4       514.3255       1756.5547     -66.177953      5771.7897      2218.2491      7990.0387      168707.39      43.856574      43.856574      87.713149          16004 
    159000   2802.5918      100210.55      942.63794      99682.926      100745.62      100203.09      283.13413      1607.8263      2028.1466      5797.3015      2300.1779      8097.4794      168689.51      43.855024      43.855024      87.710049          16004 
    160000   2793.6911      103199.42      948.96249      103978.65      102648.54      102971.06      111.83614      296.23639      1063.0264      5778.8899      2276.1118      8055.0017      168406         43.830443      43.830443      87.660885          16004 
    161000   2784.7853      100689.26      955.28859      100961.3       98962.503      102143.98     -906.70475     -309.37774      2086.919       5760.4678      2296.995       8057.4628      168627.7       43.849668      43.849668      87.699336          16004 
    162000   2817.9506      97646.545      961.61537      98195.773      97128.366      97615.497     -1232.3703     -1262.3221     -1397.8174      5829.0719      2302.3472      8131.4191      168855.34      43.869391      43.869391      87.738782          16004 
    163000   2796.7012      98824.162      967.94187      97820.349      100022.18      98629.962      78.199671      2062.178       1808.8679      5785.1165      2223.9752      8009.0917      168740.02      43.859401      43.859401      87.718803          16004 
    164000   2793.2629      98152.184      974.27296      97233.998      97756.33       99466.224     -20.764935      346.37139     -448.33748      5778.0042      2311.6939      8089.6981      168822.07      43.86651       43.86651       87.733019          16004 
    165000   2808.0304      102219.28      980.60115      102074.12      102047.24      102536.47     -870.59572      474.94052     -1891.7637      5808.5515      2260.5956      8069.1471      168498.8       43.838492      43.838492      87.676983          16004 
    166000   2822.1048      100091.28      986.93099      99179.53       100503.41      100590.88     -395.31721      223.80425     -190.14307      5837.6652      2244.8946      8082.5598      168627.68      43.849666      43.849666      87.699333          16004 
    167000   2770.4724      101182.5       993.27013      100990.33      100588.63      101968.56     -297.28913      1492.1274      116.35657      5730.8609      2194.1796      7925.0406      168480.71      43.836923      43.836923      87.673846          16004 
    168000   2790.0204      99651.61       999.59808      100583.98      100305.23      98065.618      1129.6186     -786.44942      1478.2825      5771.297       2251.4326      8022.7295      168660.67      43.852526      43.852526      87.705051          16004 
    169000   2779.7999      97500.82       1005.9303      97601.566      97585.711      97315.183      828.95135     -1132.279      -390.02758      5750.1553      2326.7629      8076.9181      168941.27      43.876831      43.876831      87.753661          16004 
    170000   2784.9693      96557.743      1012.2601      95665.897      96497.231      97510.102      1411.0408     -1499.8932     -1888.5145      5760.8485      2270.2798      8031.1284      168955.25      43.878041      43.878041      87.756083          16004 
    171000   2781.7003      98480.492      1018.5866      98062.621      98585.771      98793.085      35.729469      785.60771     -165.21597      5754.0864      2268.9436      8023.03        168758.61      43.861012      43.861012      87.722024          16004 
    172000   2792.6979      102575.26      1024.9119      102583.94      102786.25      102355.58     -1647.0198     -1895.6118      1690.7827      5776.8355      2348.3999      8125.2354      168513.76      43.839789      43.839789      87.679578          16004 
    173000   2803.6734      100548.15      1031.2354      100900.46      100286.13      100457.85     -1205.1793     -2317.1815      381.31638      5799.5389      2269.2851      8068.8239      168669.49      43.853289      43.853289      87.706579          16004 
    174000   2784.5435      97953.645      1037.5598      99187.728      97628.815      97044.391      265.54967     -2977.2019     -2069.3435      5759.9677      2216.9611      7976.9288      168758.27      43.860983      43.860983      87.721965          16004 
    175000   2812.8863      95955.864      1043.88        95792.349      95308.417      96766.826     -1331.704      -123.49694      1070.9235      5818.5963      2261.9536      8080.5499      169018.42      43.883509      43.883509      87.767019          16004 
    176000   2796.7533      99802.683      1050.2084      99745.523      100389.91      99272.61       908.64606     -1931.1964      679.9788       5785.2243      2220.348       8005.5723      168618.23      43.848847      43.848847      87.697694          16004 
    177000   2822.4828      101935.51      1056.5323      102621.4       102995.17      100189.95     -3070.9572      1166.1675      1192.9671      5838.4471      2309.8745      8148.3216      168607.9       43.847951      43.847951      87.695903          16004 
    178000   2791.8421      101894.08      1062.8594      101425.78      101784.08      102472.38     -982.4318       437.76377      945.95502      5775.0654      2237.7156      8012.7809      168514.56      43.839858      43.839858      87.679717          16004 
    179000   2807.2065      98990.287      1069.1842      98686.463      98765.268      99519.13       568.33827      906.48926     -71.650608      5806.8474      2265.7901      8072.6374      168786.48      43.863426      43.863426      87.726852          16004 
    180000   2775.2431      96346.727      1075.512       96017.745      95848.991      97173.444     -714.38412      1786.5957     -266.79364      5740.7295      2260.8614      8001.5909      168904.78      43.873672      43.873672      87.747344          16004 
    181000   2794.9278      97626.092      1081.8438      97374.718      98421.587      97081.971      353.63951     -1515.1541     -380.50136      5781.4481      2317.1926      8098.6407      168874.41      43.871042      43.871042      87.742084          16004 
    182000   2809.8851      101055.19      1088.1724      102717.72      99623.904      100823.95     -228.91034      1587.387      -98.00994       5812.3881      2219.0703      8031.4584      168558.74      43.843689      43.843689      87.687379          16004 
    183000   2794.0783      102779.01      1094.5052      103123.88      101834.94      103378.21     -59.715121      805.37632     -895.31694      5779.691       2277.2138      8056.9049      168408.41      43.830652      43.830652      87.661304          16004 
    184000   2791.2222      103046.14      1100.8317      104140.33      102035.58      102962.52     -1934.6369      609.49195      197.4193       5773.7829      2289.302       8063.0849      168488.26      43.837578      43.837578      87.675156          16004 
    185000   2798.5924      100376.47      1107.1613      100226.21      100697.83      100205.38     -743.48456     -1446.7351     -491.99388      5789.0287      2246.1294      8035.1581      168643.03      43.850997      43.850997      87.701994          16004 
    186000   2821.5263      95849.177      1113.4892      96345.091      95191.881      96010.559      695.33035      166.82959     -733.9766       5836.4684      2280.9868      8117.4553      169014.71      43.883188      43.883188      87.766375          16004 
    187000   2828.7952      98418.648      1119.8173      97911.394      98726.532      98618.019     -905.04756     -489.90281     -209.09953      5851.5046      2206.7066      8058.2112      168796.35      43.864281      43.864281      87.728562          16004 
    188000   2778.4368      101583.76      1126.1413      101846.98      101833.57      101070.72      442.57458     -945.46118     -367.3079       5747.3356      2173.434       7920.7697      168474.58      43.836391      43.836391      87.672782          16004 
    189000   2802.2317      102394.89      1132.4685      102053.36      102113.66      103017.65     -323.27493      361.65918      2111.373       5796.5567      2327.4285      8123.9852      168477.37      43.836633      43.836633      87.673266          16004 
    190000   2808.775       100922.2       1138.794       101289.14      100524.71      100952.75     -368.64345     -573.85174     -442.96943      5810.0918      2282.9035      8092.9953      168528.45      43.841063      43.841063      87.682126          16004 
    191000   2779.4475      100964.65      1145.1219      100933.28      101639.92      100320.76      1636.4045      2231.556      -1186.6466      5749.4265      2182.8414      7932.2679      168501.28      43.838707      43.838707      87.677414          16004 
    192000   2799.9636      97346.464      1151.4462      97611.541      98374.792      96053.061      2974.1976      412.96931     -3140.5561      5791.8649      2258.7254      8050.5903      168890.58      43.872442      43.872442      87.744884          16004 
    193000   2776.75        95798.396      1157.7729      95532.861      96251.092      95611.235     -751.61466     -2768.6722     -411.87907      5743.8464      2236.7201      7980.5665      168885.72      43.872021      43.872021      87.744042          16004 
    194000   2810.8945      99204.645      1164.1008      99115.248      99740.321      98758.367      1018.6838      1348.8497     -92.552445      5814.4762      2222.4692      8036.9454      168716.21      43.857338      43.857338      87.714676          16004 
    195000   2795.5725      101826.72      1170.4276      101230.43      102426.23      101823.49     -967.79946      636.49765     -35.58477       5782.7818      2293.7473      8076.5291      168527.11      43.840947      43.840947      87.681894          16004 
    196000   2782.4856      101744.52      1176.7642      101795.11      101813.75      101624.69      526.05925     -371.12631      9.1138294      5755.7108      2277.0874      8032.7982      168515.2       43.839914      43.839914      87.679827          16004 
    197000   2800.506       100354.62      1183.1         100865.15      100228.8       99969.897      1554.8023      350.78904      436.23635      5792.987       2285.0459      8078.0329      168680.58      43.85425       43.85425       87.708501          16004 
    198000   2817.0394      100206.34      1189.4299      101183.84      99916.543      99518.623      1076.5836     -2182.4266     -149.72767      5827.1871      2223.3199      8050.5071      168647.32      43.851369      43.851369      87.702737          16004 
    199000   2805.9841      96749.863      1195.7599      96870.695      97412.875      95966.019     -566.74016     -2351.1587      2709.4534      5804.3188      2341.1808      8145.4995      169049.62      43.886209      43.886209      87.772418          16004 
    200000   2814.0776      98030.659      1202.0918      98796.538      98067.97       97227.47      -1087.6653      1150.5688      1495.4426      5821.0605      2224.2585      8045.3189      168797.31      43.864365      43.864365      87.72873           16004 
    201000   2820.3401      101353.34      1208.4226      101242.66      101601.87      101215.49      2473.7919      137.19702      517.10206      5834.0148      2206.9858      8041.0006      168546.98      43.84267       43.84267       87.685339          16004 
    202000   2781.9777      102224.27      1214.7489      101480.19      103329.39      101863.25      255.5821       1178.7191      703.58592      5754.6602      2344.2239      8098.8841      168516.57      43.840033      43.840033      87.680066          16004 
    203000   2796.25        100486.74      1221.0755      99723.727      101765.09      99971.413     -625.94801     -602.05712     -340.24501      5784.1831      2256.2788      8040.4619      168599.91      43.847259      43.847259      87.694517          16004 
    204000   2812.3888      100254.94      1227.4005      100115.47      99541.268      101108.08      489.08257     -98.470248      1682.9521      5817.5672      2303.6537      8121.2209      168794.05      43.864082      43.864082      87.728163          16004 
    205000   2797.9705      97421.168      1233.7287      97838.352      96916.584      97508.568      475.58976      23.995245      641.33376      5787.7422      2282.8446      8070.5867      168859.58      43.869758      43.869758      87.739515          16004 
    206000   2784.3624      95475.177      1240.0532      94467.102      96363.062      95595.368      936.02594     -316.36456     -2388.8512      5759.5931      2276.8671      8036.4602      169079.69      43.888811      43.888811      87.777621          16004 
    207000   2795.512       99883.922      1246.3818      100696.95      99934.244      99020.57       1407.9245     -678.93693     -744.87717      5782.6567      2233.089       8015.7457      168614.52      43.848525      43.848525      87.69705           16004 
    208000   2848.5848      103473.4       1252.7055      102418.6       104980.95      103020.63     -1658.6888     -133.8035      -631.80489      5892.4404      2360.5754      8253.0159      168540.45      43.842104      43.842104      87.684207          16004 
    209000   2791.562       101453.03      1259.0342      101454.93      101094.55      101809.62     -1611.502      -499.38475     -370.72883      5774.4858      2292.8635      8067.3493      168575.38      43.845132      43.845132      87.690264          16004 
    210000   2791.6252      101921.2       1265.3658      103003.68      102126.08      100633.84      655.12797     -2236.4451      1149.074       5774.6165      2275.667       8050.2835      168535.02      43.841633      43.841633      87.683266          16004 
    211000   2833.4386      101154.29      1271.6952      101784.44      100727.93      100950.52     -51.020876     -699.67164     -3784.1904      5861.1098      2311.0413      8172.1511      168628.61      43.849747      43.849747      87.699493          16004 
    212000   2812.9471      102226.97      1278.0298      102536.24      102183.65      101961.01      129.1967       2729.059       259.27032      5818.7219      2222.1753      8040.8972      168502.21      43.838788      43.838788      87.677575          16004 
    213000   2825.931       97848.735      1284.3607      98080.826      97529.358      97936.021     -1155.3591      1329.8715      438.23877      5845.5798      2313.07        8158.6498      168946.01      43.877241      43.877241      87.754483          16004 
    214000   2798.991       98461.178      1290.6866      99165.003      98589.936      97628.596      279.07501     -390.31744     -342.23878      5789.8532      2242.2811      8032.1343      168769.46      43.861952      43.861952      87.723904          16004 
    215000   2809.2671      99096.009      1297.0211      100117.52      99422.214      97748.299     -1049.9262     -324.99149     -1159.0677      5811.1096      2326.9854      8138.095       168778.4       43.862727      43.862727      87.725453          16004 
    216000   2796.284       101018.4       1303.3541      101730.55      100734.34      100590.32      633.56159      714.63989      2933.4765      5784.2535      2287.0911      8071.3446      168618.45      43.848866      43.848866      87.697732          16004 
    217000   2780.4856      100966.83      1309.6784      101537.47      99601.9        101761.11     -173.25434      3113.485      -1949.564       5751.5737      2310.6984      8062.2721      168566.26      43.844341      43.844341      87.688683          16004 
    218000   2827.4305      99220.216      1316.0059      99751.145      99506.227      98403.276      1061.0116      2056.0251      296.47661      5848.6816      2282.5633      8131.2449      168809.78      43.865445      43.865445      87.73089           16004 
    219000   2785.1521      99827.587      1322.3312      98059.726      101956.85      99466.19      -481.13939      2416.6569      415.26583      5761.2266      2272.3889      8033.6156      168668.24      43.853182      43.853182      87.706364          16004 
    220000   2828.7841      101548.86      1328.6611      102804.39      100953.06      100889.13      613.61814      1006.562      -892.39828      5851.4817      2300.2718      8151.7535      168530.27      43.841221      43.841221      87.682441          16004 
    221000   2808.9489      104400.17      1334.9889      104810.06      103298.65      105091.79      149.68433     -1799.1804      950.73326      5810.4515      2257.3961      8067.8477      168244.09      43.816392      43.816392      87.632783          16004 
    222000   2811.2667      101775.94      1341.3154      102277.76      100890.38      102159.67      373.25844     -105.74929     -420.33956      5815.2461      2322.3413      8137.5874      168577.16      43.845287      43.845287      87.690574          16004 
    223000   2796.7794      99532.558      1347.6403      99151.689      99521.852      99924.132      287.94592      226.39674     -333.16612      5785.2784      2238.1562      8023.4346      168712.3       43.856999      43.856999      87.713999          16004 
    224000   2780.887       98338.754      1353.9663      99325.267      98193.574      97497.419     -45.950874      380.69749     -1408.0138      5752.404       2205.9146      7958.3186      168786.73      43.863448      43.863448      87.726896          16004 
    225000   2773.9651      98290.292      1360.2964      97790.13       98384.482      98696.266     -694.37974     -461.6824       779.36391      5738.0859      2289.5445      8027.6303      168803.73      43.86492       43.86492       87.729841          16004 
    226000   2790.8428      99661.676      1366.6313      99980.208      99546.765      99458.055     -1720.8338      1424.256       83.66773       5772.9981      2293.2663      8066.2644      168762.67      43.861364      43.861364      87.722728          16004 
    227000   2798.4101      98018.463      1372.9573      97508.875      97763.352      98783.161     -123.78226     -747.96837     -2653.3111      5788.6514      2324.422       8113.0734      168848.91      43.868834      43.868834      87.737668          16004 
    228000   2769.6045      98623.19       1379.288       99465.711      97056.543      99347.316     -30.646822      853.43721      590.46795      5729.0657      2220.7834      7949.8491      168626.29      43.849545      43.849545      87.69909           16004 
    229000   2827.3777      101234.42      1385.6189      100902.79      101448.97      101351.51     -186.2306      -599.07855     -1242.2799      5848.5725      2260.5881      8109.1606      168583.45      43.845832      43.845832      87.691664          16004 
    230000   2820.5854      103476.83      1391.9504      103982.3       103276.72      103171.46      838.59665      2130.6001      290.46071      5834.5223      2336.877       8171.3993      168344.17      43.825077      43.825077      87.650155          16004 
    231000   2813.8595      102837.26      1398.2804      103017.5       102706.21      102788.08     -61.682758      1090.0096     -403.52576      5820.6093      2298.6435      8119.2528      168459.88      43.835117      43.835117      87.670233          16004 
    232000   2782.6406      99483.117      1404.6078      98716.142      99970.33       99762.878      677.48422      1905.3387      342.11143      5756.0314      2286.7057      8042.7371      168691.97      43.855238      43.855238      87.710475          16004 
    233000   2789.6908      100566.79      1410.9324      101396.3       100289.36      100014.71     -662.84753     -1857.8403      1343.0269      5770.6152      2247.017       8017.6323      168620.67      43.849058      43.849058      87.698116          16004 
    234000   2806.5701      99904.744      1417.2599      101926.81      99130.72       98656.701     -792.86271     -1233.3914      1673.5946      5805.5308      2313.6341      8119.1649      168683.54      43.854508      43.854508      87.709016          16004 
    235000   2785.1595      101221.36      1423.5871      100069.2       100923.61      102671.27      1151.6373      779.31584     -1121.9199      5761.2419      2275.8991      8037.141       168559.99      43.843798      43.843798      87.687595          16004 
    236000   2808.573       97223.288      1429.9139      97979.614      96071.353      97618.899     -848.08297     -1103.0909      2169.3565      5809.674       2316.605       8126.279       168861.58      43.869931      43.869931      87.739862          16004 
    237000   2769.6363      96838.839      1436.2396      95884.523      96177.803      98454.191     -613.94337     -595.72629      1569.536       5729.1314      2239.1179      7968.2493      168883.25      43.871808      43.871808      87.743616          16004 
    238000   2797.8752      98242.275      1442.5684      97545.615      98321.618      98859.594     -832.49045      299.23573     -2181.4705      5787.5451      2255.6203      8043.1654      168748.26      43.860116      43.860116      87.720231          16004 
    239000   2794.4763      100488.74      1448.8978      99815.704      101142.32      100508.19     -1964.0257      185.09233     -2012.072       5780.5143      2292.1145      8072.6288      168634.5       43.850257      43.850257      87.700515          16004 
    240000   2766.5165      101530.74      1455.2305      101815.11      101797.8       100979.3       3294.7438     -331.14202     -1525.6169      5722.678       2307.7764      8030.4543      168514.77      43.839877      43.839877      87.679753          16004 
    241000   2787.8328      102855.18      1461.5659      102516.52      103056.93      102992.1       36.375713      938.97853      216.1904       5766.7719      2322.6999      8089.4718      168472.68      43.836226      43.836226      87.672453          16004 
    242000   2806.2889      102810.8       1467.8959      103044.2       102753.66      102634.53      96.533266      1093.2866      1457.7918      5804.9491      2293.2135      8098.1626      168478.99      43.836774      43.836774      87.673548          16004 
    243000   2794.4372      98306.02       1474.2253      98318.481      99035.757      97563.822      624.84296      744.32239     -461.96013      5780.4333      2308.1665      8088.5998      168805.58      43.865081      43.865081      87.730161          16004 
    244000   2779.2914      98236.583      1480.5509      97856.886      98428.16       98424.702     -248.25202     -395.98954      384.69242      5749.1036      2234.9126      7984.0162      168748.61      43.860146      43.860146      87.720292          16004 
    245000   2792.4874      97452.305      1486.8829      97020.651      98427.61       96908.653     -13.170024     -167.30675     -270.8516       5776.4         2312.5349      8088.9349      168918.01      43.874817      43.874817      87.749635          16004 
    246000   2802.4937      100415.56      1493.2096      101042.76      100223.38      99980.547      2647.0948      119.19411     -1163.7379      5797.0986      2248.3907      8045.4893      168671.56      43.853469      43.853469      87.706939          16004 
    247000   2827.1165      101950.96      1499.5358      102351.22      102134.16      101367.5       1046.7129     -737.57381     -1016.0664      5848.0321      2289.8084      8137.8405      168591.9       43.846565      43.846565      87.693129          16004 
    248000   2799.9015      102986.03      1505.8598      102662.41      103258.68      103037.02     -2008.5857     -992.10799      1671.8597      5791.7365      2247.1717      8038.9082      168447.26      43.834022      43.834022      87.668043          16004 
    249000   2833.2301      101296.86      1512.1845      99857.37       101761.98      102271.23     -3879.4012      1067.7181      1469.0616      5860.6785      2303.5844      8164.2629      168587.54      43.846186      43.846186      87.692373          16004 
    250000   2791.6426      99530.891      1518.5146      99186.999      99333.188      100072.49      1303.3463     -687.52933      1598.5557      5774.6527      2266.6474      8041.3         168697.48      43.855715      43.855715      87.711431          16004 
    251000   2822.3048      96592.769      1524.8421      96232.585      96451.076      97094.647     -1857.9379     -565.47657     -516.13404      5838.0788      2234.5719      8072.6508      168979.5       43.88014       43.88014       87.760281          16004 
    252000   2766.054       99190.702      1531.1668      99828.485      98637.713      99105.907     -848.09515      1457.11       -1565.0494      5721.7213      2272.8609      7994.5822      168728.38      43.858393      43.858393      87.716786          16004 
    253000   2800.9194      97882.832      1537.4923      97245.487      98503.059      97899.951      1839.2879      595.19761     -1740.9341      5793.8421      2241.225       8035.067       168796.39      43.864284      43.864284      87.728569          16004 
    254000   2794.2497      98788.177      1543.8198      98257.538      99394.902      98712.093      217.37271      1410.4374      1080.3066      5780.0454      2213.7732      7993.8186      168680.73      43.854264      43.854264      87.708528          16004 
    255000   2807.5076      101618.44      1550.1526      101040.91      102397.42      101416.99     -787.43541      1161.7118      304.09336      5807.4702      2255.6569      8063.1271      168546.76      43.84265       43.84265       87.685301          16004 
    256000   2833.0007      100406.38      1556.4806      100155.39      102490.96      98572.808     -312.90043      1293.7645     -1285.835       5860.2038      2224.8522      8085.056       168580.19      43.845549      43.845549      87.691099          16004 
    257000   2761.0288      102563.39      1562.8105      101364.15      103196.41      103129.61      2347.3003      1552.404       270.75207      5711.3265      2226.4271      7937.7536      168369.34      43.827262      43.827262      87.654523          16004 
    258000   2803.5714      97064.265      1569.1412      96944.328      97424.585      96823.883     -993.47494      732.54079     -2716.1729      5799.3279      2260.091       8059.4189      168887.38      43.872165      43.872165      87.744331          16004 
    259000   2778.8405      93057.642      1575.4734      93685.767      92304.745      93182.412     -227.50632     -217.90668     -716.66588      5748.1708      2286.7352      8034.906       169289.64      43.906969      43.906969      87.813939          16004 
    260000   2802.0128      98986.055      1581.8026      97254.191      100337.24      99366.735      380.18375      617.68215     -1100.269       5796.1039      2230.3713      8026.4752      168751.16      43.860367      43.860367      87.720733          16004 
    261000   2801.8791      100370.31      1588.1314      99932.035      102120.48      99058.417     -549.40018     -251.2469      -1175.3609      5795.8274      2312.4991      8108.3265      168774.14      43.862357      43.862357      87.724714          16004 
    262000   2814.3075      101156.28      1594.4585      99731.917      102061.61      101675.3       86.482801     -410.9027       1865.3823      5821.5361      2250.716       8072.2521      168571.51      43.844796      43.844796      87.689593          16004 
    263000   2813.7109      100513.1       1600.7826      101199.78      100196.43      100143.09     -1968.7822     -900.84632      538.95806      5820.302       2252.5826      8072.8846      168587.03      43.846142      43.846142      87.692284          16004 
    264000   2793.5179      97632.083      1607.113       97945.284      97802.215      97148.749      1107.4558      812.13239     -835.69554      5778.5317      2193.7287      7972.2604      168823.96      43.866673      43.866673      87.733347          16004 
    265000   2801.8214      95414.889      1613.4411      94724.314      96266.574      95253.78      -646.34931      469.22853     -1740.398       5795.708       2196.8359      7992.5439      168979.01      43.880098      43.880098      87.760196          16004 
    266000   2806.4005      99295.032      1619.7675      98691.852      99438.428      99754.817      1600.2646      1871.0861      187.00976      5805.18        2189.2731      7994.453       168684.34      43.854576      43.854576      87.709153          16004 
    267000   2799.1312      101366.91      1626.0931      101577.94      101428.08      101094.7      -1020.7688     -1129.8663     -1245.7813      5790.1431      2322.6423      8112.7854      168574.15      43.845026      43.845026      87.690051          16004 
    268000   2781.7458      102926.56      1632.4159      102841.44      103022.77      102915.46     -1997.4935     -2843.0801      855.60534      5754.1805      2260.2367      8014.4172      168388.73      43.828944      43.828944      87.657888          16004 
    269000   2811.589       100669.76      1638.7413      100593.8       101701.63      99713.831     -1516.3446      1210.9022      1406.2955      5815.9128      2243.8923      8059.8051      168660.16      43.852482      43.852482      87.704963          16004 
    270000   2770.2386      99860.603      1645.0565      99825.928      99548.345      100207.54     -904.77431     -879.14661     -341.54881      5730.3773      2252.6354      7983.0127      168667.23      43.853094      43.853094      87.706188          16004 
    271000   2836.1585      98121.539      1651.3829      97447.785      98105.982      98810.851     -311.89402      294.63164      1221.7507      5866.736       2185.5375      8052.2735      168779.7       43.862839      43.862839      87.725678          16004 
    272000   2794.3516      99883.948      1657.7067      99963.105      99227.195      100461.54      962.39127     -1150.656       341.02148      5780.2562      2295.8544      8076.1106      168679.6       43.854166      43.854166      87.708332          16004 
    273000   2808.889       103947.23      1664.0327      103466.4       103512.97      104862.32     -652.36288      446.37055     -283.60983      5810.3277      2247.0967      8057.4243      168363.87      43.826787      43.826787      87.653574          16004 
    274000   2814.3562      100540.86      1670.3603      100963.1       99505.298      101154.19     -395.25765     -1517.2158     -466.02601      5821.6368      2253.26        8074.8968      168605.94      43.847781      43.847781      87.695563          16004 
    275000   2754.9061      96730.127      1676.6858      97034.428      95665.163      97490.789      1229.809      -542.95445      1446.5407      5698.6614      2195.9343      7894.5956      168832.73      43.867433      43.867433      87.734865          16004 
    276000   2788.5739      98203.653      1683.0104      98405.747      98139.757      98065.453     -1255.1341     -1301.5723      2128.6526      5768.3048      2251.3607      8019.6655      168811.21      43.865569      43.865569      87.731138          16004 
    277000   2807.2122      98721.536      1689.3376      98459.059      99892.688      97812.86       1247.6049     -661.33845     -1649.4565      5806.8592      2301.6546      8108.5137      168846.67      43.86864       43.86864       87.737279          16004 
    278000   2806.8127      102418.38      1695.6675      102762.27      102957.64      101535.21      464.79952     -1165.5439      203.85579      5806.0326      2234.9238      8040.9564      168519.64      43.840299      43.840299      87.680598          16004 
    279000   2832.2995      100604.27      1701.9956      100796.13      100180.46      100836.22      367.57219      1776.5742     -1219.171       5858.7534      2252.9486      8111.702       168663.36      43.852758      43.852758      87.705516          16004 
    280000   2788.3184      100948.06      1708.3249      100229.73      100809.11      101805.33     -1584.2714      977.98524     -772.28799      5767.7763      2254.096       8021.8723      168578.96      43.845442      43.845442      87.690885          16004 
    281000   2778.7646      98803.299      1714.6498      98708.621      98224.862      99476.414     -1244.7556     -6.6851819     -1060.3833      5748.0139      2302.4995      8050.5134      168767.57      43.861788      43.861788      87.723576          16004 
    282000   2794.6386      96553.409      1720.9785      96201.754      96289.317      97169.157     -934.65589      327.41232     -55.672611      5780.85        2244.1097      8024.9597      168920.42      43.875026      43.875026      87.750052          16004 
    283000   2785.2933      96775.839      1727.3079      96675.101      96631.258      97021.158     -277.13454     -475.49855      807.3448       5761.5188      2247.0551      8008.5738      168952.36      43.877791      43.877791      87.755582          16004 
    284000   2823.699       97392.8        1733.6416      97078.476      97017.971      98081.954      844.46787     -568.648        1351.9408      5840.9628      2257.3961      8098.359       168835.84      43.867702      43.867702      87.735404          16004 
    285000   2809.8954      100525.28      1739.9733      101372.41      100649.33      99554.116      2340.7607      832.12077      2138.4458      5812.4094      2351.904       8164.3134      168656.14      43.852133      43.852133      87.704266          16004 
    286000   2787.79        100159.79      1746.303       100414.37      99326.469      100738.52      198.488        436.52902     -2030.1783      5766.6833      2242.5741      8009.2574      168618.63      43.848881      43.848881      87.697762          16004 
[...]
   3930000   2925.2312      98473.403      6682.7916      102327.15      103374.99      89718.071     -377.69157     -969.438       -1626.2038      6050.9873      3736.972       9787.9593      170867.99      43.840908      43.840908      88.899974          16004 
   3931000   2948.4752      96397.078      6689.9887      100381.73      99632.017      89177.488     -890.59907     -221.5432      -278.80934      6099.0687      3681.4547      9780.5234      170986.19      43.851015      43.851015      88.920468          16004 
   3932000   2956.8316      96053.762      6697.1993      100413.8       101581.84      86165.647     -1203.0036      1189.2347      3740.376       6116.3543      3662.2396      9778.594       171015.85      43.85355       43.85355       88.925609          16004 
   3933000   2943.5827      97711.365      6704.4095      102500.89      101137.12      89496.09      -573.05478     -1386.9429     -3275.9878      6088.9482      3694.6836      9783.6319      170926.21      43.845887      43.845887      88.910069          16004 
   3934000   2976.8366      99768.126      6711.6183      104735.93      103755.74      90812.71      -711.66116     -110.15174      194.64677      6157.7357      3638.8021      9796.5379      170704.89      43.826955      43.826955      88.871679          16004 
   3935000   2946.3721      100387.59      6718.8144      104167.95      105710.11      91284.714     -892.33063      3557.743      -724.42469      6094.7183      3707.2889      9802.0072      170614.71      43.819235      43.819235      88.856025          16004 
   3936000   2942.6167      100664.57      6726.0118      104260.36      105813.6       91919.756     -1212.6531     -2548.1057     -2052.1738      6086.9501      3715.4386      9802.3886      170600.26      43.817999      43.817999      88.853518          16004 
   3937000   2957.9656      101110.68      6733.2156      105003         106586.82      91742.204      319.46867     -1328.877      -2247.5547      6118.7         3686.4307      9805.1308      170554.52      43.814082      43.814082      88.845575          16004 
   3938000   2941.1085      100939.24      6740.4186      107489.65      105190.72      90137.364     -705.90562      1704.5869     -659.92241      6083.8303      3720.9433      9804.7736      170556.24      43.814229      43.814229      88.845874          16004 
   3939000   2935.1099      101571.47      6747.621       105789.47      107434.98      91489.958     -493.93739      1413.7694     -3892.8904      6071.4219      3739.8008      9811.2228      170447.39      43.804906      43.804906      88.82697           16004 
   3940000   2959.4772      99446.23       6754.8234      105048.21      103252.74      90037.741     -1080.1336     -3481.4114     -2047.0284      6121.8269      3679.4073      9801.2342      170603.99      43.818317      43.818317      88.854164          16004 
   3941000   2951.9095      98505.449      6762.0256      102357.53      104259.65      88899.166      1014.5675     -974.30848      692.33985      6106.1727      3689.8086      9795.9813      170681.03      43.824912      43.824912      88.867537          16004 
   3942000   2946.5968      97768.576      6769.2298      102235.95      101649.94      89419.833      1032.2964      918.855       -323.2251       6095.183       3695.1182      9790.3012      170766.94      43.832264      43.832264      88.882444          16004 
   3943000   2938.4363      100428.74      6776.4474      104669.9       106785.35      89830.953     -803.20375      1282.1137     -3699.3267      6078.3028      3720.9994      9799.3022      170608.65      43.818717      43.818717      88.854974          16004 
   3944000   2952.898       99859.112      6783.6537      104756.24      103886.27      90934.824     -146.10974      1033.2357      816.98829      6108.2174      3684.5175      9792.7349      170713.32      43.827676      43.827676      88.873141          16004 
   3945000   2972.3781      98691.247      6790.8582      105008.72      102818.92      88246.095      1526.8978     -1767.7923     -238.94096      6148.513       3643.9615      9792.4745      170709.79      43.827374      43.827374      88.872528          16004 
   3946000   2992.2831      104317.05      6798.0581      108779.12      108959.65      95212.373     -731.37821      330.99033     -3415.7709      6189.6874      3623.4831      9813.1705      170365.49      43.797889      43.797889      88.81274           16004 
   3947000   2964.3212      103095.73      6805.2521      108651.25      107151.79      93484.13      -1029.7417      238.45834     -2630.6595      6131.8469      3672.8498      9804.6967      170481.83      43.807857      43.807857      88.832952          16004 
   3948000   2956.4887      100338.26      6812.4459      105891.24      104874.46      90249.094      1439.2072      1786.8577     -537.29867      6115.6449      3682.8439      9798.4888      170580.26      43.816286      43.816286      88.850045          16004 
   3949000   2967.7605      101587.72      6819.6375      105146.16      106727.99      92889.004     -989.32334      2180.1307     -3338.8115      6138.9612      3661.2391      9800.2004      170552.89      43.813942      43.813942      88.845293          16004 
   3950000   2976.8239      104691.4       6826.8262      108984.33      109274.01      95815.858     -1272.3108      503.05002     -3223.0836      6157.7093      3654.4182      9812.1275      170352.6       43.796784      43.796784      88.8105            16004 
   3951000   2986.1345      102256.6       6834.0174      105640.66      107169.84      93959.302      908.76114      557.81193     -2223.22        6176.9687      3621.157       9798.1257      170567.79      43.815218      43.815218      88.847879          16004 
   3952000   2946.066       100875.74      6841.2061      105594.16      105218.47      91814.592      557.47991      1365.9417     -156.05524      6094.0852      3701.8404      9795.9256      170601.13      43.818072      43.818072      88.853668          16004 
   3953000   2968.2844      101872.9       6848.3983      107429.03      106544.17      91645.502     -475.5919       2361.9787     -513.86563      6140.0451      3653.0293      9793.0744      170640.24      43.82142       43.82142       88.860457          16004 
   3954000   2952.6981      98230.055      6855.5965      102056.46      106114.47      86519.238      115.45986      267.96507     -186.66265      6107.804       3671.7505      9779.5545      170855.09      43.839805      43.839805      88.897736          16004 
   3955000   2973.5142      96557.332      6862.7864      101086.58      100830.36      87755.062     -282.10275     -508.35146     -2349.2899      6150.8632      3625.4426      9776.3057      170902.56      43.843864      43.843864      88.905968          16004 
   3956000   2982.4808      99258.258      6869.9768      103088.95      105782.87      88902.956     -2028.4888      2242.5908     -2981.2369      6169.411       3619.0454      9788.4565      170701.64      43.826676      43.826676      88.871115          16004 
   3957000   2940.8777      99007.201      6877.1693      103440.93      102696.1       90884.568      1563.3366      862.21207     -1617.7837      6083.3529      3702.0316      9785.3845      170745.77      43.830453      43.830453      88.878772          16004 
   3958000   2964.8487      99868.321      6884.3622      105531.17      105088.59      88985.209     -1160.1724      1581.0417     -2501.0185      6132.9381      3656.5289      9789.467       170675.56      43.824444      43.824444      88.866588          16004 
   3959000   2966.435       101217.84      6891.5496      106675.53      105879.69      91098.298     -254.8209      -1284.2781      117.5659       6136.2194      3659.8201      9796.0395      170563.6       43.814859      43.814859      88.847151          16004 
   3960000   2959.9728      101923.74      6898.7431      105262.46      107147.46      93361.291     -466.5013       1343.352      -2087.001       6122.8521      3677.4318      9800.2839      170479.53      43.807659      43.807659      88.832552          16004 
   3961000   2930.6618      103991.28      6905.9328      109036.39      107961.76      94975.674      2859.6826      105.99345     -1130.7804      6062.2207      3748.0397      9810.2605      170326.45      43.794543      43.794543      88.805956          16004 
   3962000   2975.3156      100777.47      6913.1244      105465.16      107027.99      89839.265      1283.9924      133.69204     -2557.2349      6154.5894      3645.4152      9800.0046      170480.39      43.807733      43.807733      88.832702          16004 
   3963000   2968.7734      101772.84      6920.315       107603.24      106706.11      91009.158     -837.91786      139.87893     -1565.6715      6141.0565      3652.3404      9793.3969      170580.38      43.816296      43.816296      88.850066          16004 
   3964000   2966.9099      101286.76      6927.5118      105611.01      106453.16      91796.117     -206.41846      251.47546     -189.50127      6137.2018      3655.5309      9792.7327      170587.32      43.816891      43.816891      88.851271          16004 
   3965000   2938.8523      98435.452      6934.7089      103223.16      102910.59      89172.602      1392.2625      799.91724     -2846.4474      6079.1633      3701.5395      9780.7027      170779.74      43.833359      43.833359      88.884665          16004 
   3966000   2965.0169      99290.236      6941.9051      103930.73      102768.83      91171.152      1010.0664      82.842142     -734.79888      6133.286       3650.0644      9783.3504      170719.11      43.828171      43.828171      88.874145          16004 
   3967000   2969.9383      99969.067      6949.1094      104702.18      106375.89      88829.134      449.20569     -1701.711      -2577.4905      6143.4662      3642.3694      9785.8355      170667.48      43.823753      43.823753      88.865186          16004 
   3968000   2958.9876      99382.532      6956.3112      104708.14      103851.59      89587.866     -1014.7026      806.89691     -652.38864      6120.8141      3659.496       9780.3101      170748.75      43.830707      43.830707      88.879288          16004 
   3969000   2973.5152      97985.163      6963.5106      103693.79      103389.66      86872.036     -2000.3762      2330.0216      1064.2292      6150.8651      3625.4067      9776.2719      170808.32      43.835804      43.835804      88.889624          16004 
   3970000   2947.7045      96797.276      6970.7087      100604.35      102942.68      86844.797     -1025.4254     -805.43767     -817.13313      6097.4745      3668.7795      9766.254       170965.53      43.849249      43.849249      88.916887          16004 
   3971000   2954.1318      97498.884      6977.9115      101162.98      102991.14      88342.533      1140.835       519.23996     -2244.446       6110.7696      3660.2921      9771.0617      170871.81      43.841235      43.841235      88.900636          16004 
   3972000   2960.4834      99012.759      6985.1187      102765.91      105407.87      88864.492     -1251.0631     -881.20749     -193.18223      6123.9083      3652.6375      9776.5458      170770.03      43.832528      43.832528      88.88298           16004 
   3973000   2950.5477      99544.209      6992.3308      104825.21      105838.14      87969.268     -340.76852      1326.2502     -1717.5576      6103.3558      3678.8474      9782.2031      170674.81      43.82438       43.82438       88.866457          16004 
   3974000   2967.2188      98504.694      6999.5323      102887.12      103703.34      88923.619      807.85537      1599.4891     -110.27728      6137.8408      3638.267       9776.1078      170768.82      43.832425      43.832425      88.882771          16004 
   3975000   2955.6317      97937.38       7006.7377      102921.53      102274.09      88616.528     -1531.3374     -1793.8945     -1964.411       6113.8722      3658.6391      9772.5114      170814.53      43.836335      43.836335      88.890701          16004 
   3976000   2944.169       98464.256      7013.952       104227.97      103732.91      87431.885     -844.12304     -1066.1009     -3330.0195      6090.161       3686.0448      9776.2058      170742.71      43.830191      43.830191      88.878241          16004 
   3977000   2980.9872      101295.44      7021.1649      106567.66      105669.69      91648.983      251.01305      3770.77       -936.34693      6166.3214      3625.2608      9791.5822      170492.65      43.808783      43.808783      88.834831          16004 
   3978000   2947.287       104083.21      7028.3784      108791.82      107757.03      95700.776      2222.8065     -2693.2739     -1359.6764      6096.6107      3695.321       9791.9318      170481.49      43.807828      43.807828      88.832893          16004 
   3979000   2977.7868      102894.66      7035.5859      107065.8       107514.74      94103.454     -1331.4336     -2280.8812      52.178322      6159.7013      3646.1883      9805.8896      170257.66      43.788646      43.788646      88.793998          16004 
   3980000   2957.3356      105193.45      7042.797       109046.34      110010.64      96523.37      -2342.534       2052.3586     -1322.5687      6117.3968      3690.0141      9807.4109      170233.4       43.786567      43.786567      88.789781          16004 
   3981000   2962.1504      100711.85      7050.0137      106010.18      104871.23      91254.134     -311.96937      1244.6525     -2069.8078      6127.3565      3661.7224      9789.0789      170506.66      43.809983      43.809983      88.837264          16004 
   3982000   2986.6375      101760.6       7057.2194      106887.69      105400.01      92994.104     -102.45279      3339.6332     -1065.2768      6178.0092      3612.0181      9790.0274      170474.91      43.807264      43.807264      88.83175           16004 
   3983000   2941.4554      101236         7064.4347      105965.62      105414.82      92327.577      1059.7966     -78.097195     -4014.0414      6084.5478      3700.5621      9785.11        170552.49      43.813908      43.813908      88.845223          16004 
   3984000   2974.8529      99433.642      7071.6402      103228.24      104682.24      90390.447     -443.26431     -1843.0219      160.16003      6153.6323      3618.4928      9772.1251      170739.3       43.829899      43.829899      88.87765           16004 
   3985000   2965.4141      99495.672      7078.8474      103528.02      104984.75      89974.245     -1719.7351     -981.36557     -2093.856       6134.1076      3640.6994      9774.807       170692.87      43.825925      43.825925      88.869592          16004 
   3986000   2947.1443      100438.58      7086.0635      105510.72      104730.48      91074.535     -1647.1327      549.52842     -1455.5991      6096.3156      3679.1205      9775.4361      170678.96      43.824735      43.824735      88.867178          16004 
   3987000   2957.6465      98306.527      7093.2785      103536.67      102717.15      88665.764     -1364.3434     -2370.1825      385.78297      6118.04        3651.1715      9769.2116      170769.2       43.832457      43.832457      88.882836          16004 
   3988000   2948.5835      98970.681      7100.4918      103560.5       103180.6       90170.945      263.96586     -2276.5928      52.202465      6099.2928      3667.0191      9766.3118      170812.06      43.836124      43.836124      88.890272          16004 
   3989000   2950.7789      98056.174      7107.7047      102466.96      102662.16      89039.398      31.803174      1307.3739      554.43035      6103.8339      3661.4872      9765.3212      170826.42      43.837353      43.837353      88.892764          16004 
   3990000   2974.3663      101215.16      7114.9138      105896.19      104183.72      93565.551      249.94109     -1168.0445     -820.52928      6152.6256      3626.5398      9779.1654      170592.92      43.81737       43.81737       88.852243          16004 
   3991000   2971.6855      101997.91      7122.122       106796.56      105553.92      93643.234      533.45446      837.94437     -1473.1499      6147.0804      3642.6862      9789.7666      170413.79      43.802027      43.802027      88.821132          16004 
   3992000   2941.7448      105237.4       7129.3405      110736         109052.1       95924.091     -139.49734      1776.7001     -2513.4251      6085.1464      3719.1897      9804.3361      170172.71      43.781362      43.781362      88.779227          16004 
   3993000   2945.3785      101999.85      7136.5467      106633.02      107338.54      92027.982     -2755.594      -1402.1145     -1542.1947      6092.6629      3695.781       9788.4439      170418.58      43.802438      43.802438      88.821965          16004 
   3994000   2945.4757      99656.385      7143.7595      104085.37      103845.94      91037.849     -281.60061     -656.50532     -2024.3495      6092.864       3680.3143      9773.1783      170653.81      43.822583      43.822583      88.862813          16004 
   3995000   2956.9078      99914.352      7150.9653      103688.22      106330.5       89724.333     -1484.395       306.32051     -731.30523      6116.512       3655.2006      9771.7126      170672.52      43.824184      43.824184      88.866061          16004 
   3996000   2946.2563      99386.179      7158.1681      102825.28      104142.09      91191.166      186.06065      845.27568     -3978.6945      6094.4787      3672.868       9767.3466      170736.9       43.829693      43.829693      88.877232          16004 
   3997000   2941.9404      97030.298      7165.3842      103391.51      102320.49      85378.893     -2444.6132     -1667.7476     -3605.8152      6085.5511      3673.4152      9758.9663      170878.85      43.841837      43.841837      88.901856          16004 
   3998000   2958.0367      93533.548      7172.5904      98676.39       97344.477      84579.777     -1403.5311     -397.7197      -1317.9919      6118.8472      3625.4009      9744.2481      171117.14      43.862207      43.862207      88.943162          16004 
   3999000   2979.6849      95658.463      7179.8074      101570.03      100919.29      84486.064     -2128.1031      1296.0766     -2527.3802      6163.6275      3590.7421      9754.3696      170928.32      43.846067      43.846067      88.910434          16004 
   4000000   2930.8784      99534.913      7187.0241      103688.42      105198.51      89717.81      -445.15375     -1977.4067     -460.83652      6062.6689      3705.8041      9768.473       170694.82      43.826093      43.826093      88.869931          16004 
Loop time of 7187.02 on 8 procs for 1000000 steps with 16004 atoms

Performance: 6.011 ns/day, 3.993 hours/ns, 139.140 timesteps/s
61.1% CPU use with 1 MPI tasks x 8 OpenMP threads

MPI task timing breakdown:
Section |  min time  |  avg time  |  max time  |%varavg| %total
---------------------------------------------------------------
Pair    | 6910.1     | 6910.1     | 6910.1     |   0.0 | 96.15
Neigh   | 8.3607     | 8.3607     | 8.3607     |   0.0 |  0.12
Comm    | 36.626     | 36.626     | 36.626     |   0.0 |  0.51
Output  | 1.2709     | 1.2709     | 1.2709     |   0.0 |  0.02
Modify  | 203.97     | 203.97     | 203.97     |   0.0 |  2.84
Other   |            | 26.65      |            |       |  0.37

Nlocal:          16004 ave       16004 max       16004 min
Histogram: 1 0 0 0 0 0 0 0 0 0
Nghost:          13671 ave       13671 max       13671 min
Histogram: 1 0 0 0 0 0 0 0 0 0
Neighs:              0 ave           0 max           0 min
Histogram: 1 0 0 0 0 0 0 0 0 0
FullNghs:  1.37658e+06 ave 1.37658e+06 max 1.37658e+06 min
Histogram: 1 0 0 0 0 0 0 0 0 0

Total # of neighbors = 1376576
Ave neighs/atom = 86.014496
Neighbor list builds = 26553
Dangerous builds = 0
Total wall time: 7:14:55
