
atom_style atomic
units metal
boundary p p p
#atom_modify sort 0 0.0
newton on

read_data data.lammps
Reading data file ...
  orthogonal box = (0 0 0) to (43.790145 43.790145 87.58029)
  1 by 1 by 1 MPI processor grid
  reading atoms ...
  16004 atoms
  read_data CPU = 0.127 seconds
# replicate 10 10 20

### interactions

pair_style flare
pair_coeff * * lmp.flare
Reading potential file lmp.flare with DATE: Thu

# compute unc all flare/std/atom L_inv_lmp.flare sparse_desc_lmp.flare
# compute MaxUnc all reduce max c_unc

mass 1 12.011000
mass 2 28.085000

thermo_style custom step temp press cpu pxx pyy pzz pxy pxz pyz ke pe etotal vol lx ly lz atoms    #c_MaxUnc
thermo 1000
timestep 0.0005
restart 100000 restart_*.dat

#################### Equilibrate at P and T_es ##############################
velocity all create $T 41928459 rot yes dist gaussian
velocity all create 3200 41928459 rot yes dist gaussian
fix mom all momentum 1000 linear 1 1 1 angular

fix 1 all npt temp $T $T $(100.0*dt) iso $P $P $(1000.0*dt)
fix 1 all npt temp 3200 $T $(100.0*dt) iso $P $P $(1000.0*dt)
fix 1 all npt temp 3200 3200 $(100.0*dt) iso $P $P $(1000.0*dt)
fix 1 all npt temp 3200 3200 0.050000000000000002776 iso $P $P $(1000.0*dt)
fix 1 all npt temp 3200 3200 0.050000000000000002776 iso 900000 $P $(1000.0*dt)
fix 1 all npt temp 3200 3200 0.050000000000000002776 iso 900000 900000 $(1000.0*dt)
fix 1 all npt temp 3200 3200 0.050000000000000002776 iso 900000 900000 0.5
dump 1 all custom 1000 1equil.bin id type x y z vx vy vz
run   10000 # report performance
Neighbor list info ...
  update every 1 steps, delay 10 steps, check yes
  max neighbors/atom: 2000, page size: 100000
  master list distance cutoff = 6
  ghost atom cutoff = 6
  binsize = 6, bins = 8 8 15
  1 neighbor lists, perpetual/occasional/extra = 1 0 0
  (1) pair flare/kk, perpetual
      attributes: full, newton on, kokkos_device
      pair build: full/bin/kk/device
      stencil: full/bin/3d
      bin: kk/device
Per MPI rank memory allocation (min/avg/max) = 15.9 | 15.9 | 15.9 Mbytes
   Step          Temp          Press           CPU            Pxx            Pyy            Pzz            Pxy            Pxz            Pyz           KinEng         PotEng         TotEng         Volume           Lx             Ly             Lz          Atoms   
         0   3200           62295.48       0              61920.045      62313.853      62652.542     -790.80119      8.8236366     -494.42354      6619.3603     -4000.2205      2619.1398      167941.93      43.790145      43.790145      87.58029           16004 
      1000   3277.1255      898131.36      7.2539896      896227.84      898833.37      899332.86      1149.5664     -80.431177      1583.8857      6778.8983      10638.176      17417.074      132618.51      40.475422      40.475422      80.950844          16004 
      2000   3184.7154      901697.11      14.561329      903161.81      901170.05      900759.47     -667.98563     -3144.3096     -1584.3366      6587.7433      10392.063      16979.806      132357.49      40.448849      40.448849      80.897699          16004 
      3000   3244.9167      899455.29      21.855933      900107.4       899796.46      898462         123.45749     -1499.2721     -681.05341      6712.2727      10597.65       17309.922      132394.36      40.452606      40.452606      80.905211          16004 
      4000   3174.6774      900241.06      29.140075      902404.79      899819.56      898498.84      984.5608      -788.47528      322.96062      6566.9793      10541.626      17108.606      132280.92      40.441049      40.441049      80.882097          16004 
      5000   3225.6847      900125.12      36.425183      901526.73      900055.28      898793.34     -1266.7316      1112.9695     -3018.8157      6672.4904      10640.682      17313.173      132283.1       40.44127       40.44127       80.882541          16004 
      6000   3193.3752      899992.81      43.70583       899073.96      902763.2       898141.28      3255.7119     -1561.1335      2831.1705      6605.6565      10557.251      17162.907      132280.31      40.440986      40.440986      80.881971          16004 
      7000   3232.504       900622.96      50.988914      902567.4       901791.54      897509.93      53.796048     -3777.4662     -3026.1196      6686.5966      10618.146      17304.742      132300.51      40.443044      40.443044      80.886089          16004 
      8000   3197.8441      898928.55      58.278366      898148.44      898938.16      899699.05     -5663.0046      645.54144      4099.2007      6614.9007      10536.107      17151.007      132292.48      40.442226      40.442226      80.884452          16004 
      9000   3204.5791      901592.45      65.565809      898836.54      904573.21      901367.58      2346.366      -720.50531      189.88442      6628.8323      10662.26       17291.093      132256.99      40.43861       40.43861       80.87722           16004 
     10000   3186.0072      900932.8       72.869289      900613.81      901656.85      900527.75     -3098.1248      942.2208       4003.6354      6590.4154      10615.391      17205.806      132232.26      40.436088      40.436088      80.872177          16004 
Loop time of 72.8693 on 8 procs for 10000 steps with 16004 atoms

Performance: 5.928 ns/day, 4.048 hours/ns, 137.232 timesteps/s
65.0% CPU use with 1 MPI tasks x 8 OpenMP threads

MPI task timing breakdown:
Section |  min time  |  avg time  |  max time  |%varavg| %total
---------------------------------------------------------------
Pair    | 67.384     | 67.384     | 67.384     |   0.0 | 92.47
Neigh   | 0.12008    | 0.12008    | 0.12008    |   0.0 |  0.16
Comm    | 1.0286     | 1.0286     | 1.0286     |   0.0 |  1.41
Output  | 0.039579   | 0.039579   | 0.039579   |   0.0 |  0.05
Modify  | 3.8147     | 3.8147     | 3.8147     |   0.0 |  5.23
Other   |            | 0.482      |            |       |  0.66

Nlocal:          16004 ave       16004 max       16004 min
Histogram: 1 0 0 0 0 0 0 0 0 0
Nghost:          14575 ave       14575 max       14575 min
Histogram: 1 0 0 0 0 0 0 0 0 0
Neighs:              0 ave           0 max           0 min
Histogram: 1 0 0 0 0 0 0 0 0 0
FullNghs:  1.76378e+06 ave 1.76378e+06 max 1.76378e+06 min
Histogram: 1 0 0 0 0 0 0 0 0 0

Total # of neighbors = 1763782
Ave neighs/atom = 110.20882
Neighbor list builds = 193
Dangerous builds = 0
run  990000
Per MPI rank memory allocation (min/avg/max) = 16.45 | 16.45 | 16.45 Mbytes
   Step          Temp          Press           CPU            Pxx            Pyy            Pzz            Pxy            Pxz            Pyz           KinEng         PotEng         TotEng         Volume           Lx             Ly             Lz          Atoms   
     10000   3186.0072      900932.8       0              900613.81      901656.85      900527.75     -3098.1248      942.2208       4003.6354      6590.4154      10615.391      17205.806      132232.26      40.436088      40.436088      80.872177          16004 
     11000   3226.1706      893786.31      7.3079948      892968.53      894338.71      894051.68      3739.1009      4222.8629     -1604.7897      6673.4956      10507.954      17181.449      132458.53      40.459139      40.459139      80.918279          16004 
     12000   3198.9952      907902.8       14.639367      906736.2       910758.73      906213.46     -3334.387      -710.13467      1544.7586      6617.2817      10727.774      17345.055      132041.39      40.416624      40.416624      80.833248          16004 
     13000   3186.1061      903038.54      21.950725      903233.96      901620.12      904261.53     -32.17541       2240.0529      357.95675      6590.6201      10607.086      17197.707      132196.16      40.432408      40.432408      80.864817          16004 
     14000   3220.3475      897538.14      29.260437      895473.75      897857.39      899283.29      1956.7692      1195.9334      1383.3063      6661.45        10557.254      17218.704      132349.21      40.448007      40.448007      80.896013          16004 
     15000   3211.7282      900180.78      36.565358      903012.14      900437.02      897093.18      5538.9364     -375.54165     -1370.1263      6643.6206      10627.095      17270.715      132318.08      40.444834      40.444834      80.889669          16004 
     16000   3202.1399      903797.62      43.876746      902153.91      907381.87      901857.09     -2031.2617     -3327.8015     -2850.4686      6623.7869      10644.74       17268.527      132215.49      40.43438       40.43438       80.868759          16004 
     17000   3216.3031      898754.66      51.192554      900924.71      898115.38      897223.9      -516.81731      1176.3097     -74.584982      6653.0841      10583.931      17237.015      132323.49      40.445386      40.445386      80.890772          16004 
     18000   3196.1494      891564.2       58.514258      890452.43      892718.41      891521.77      1721.4623      1403.8874      1021.8676      6611.3952      10527.117      17138.512      132517.99      40.465192      40.465192      80.930385          16004 
     19000   3228.5157      902507.96      65.836401      900312.15      903957.39      903254.33     -2412.4054      722.58848     -3250.5531      6678.3464      10649.029      17327.375      132228.81      40.435737      40.435737      80.871475          16004 
     20000   3183.4301      899951.88      73.150825      899211.09      898823.31      901821.25      1792.9338     -5659.9177      2932.4346      6585.0847      10627.74       17212.825      132285.14      40.441478      40.441478      80.882956          16004 
     21000   3186.4867      899563.36      80.47024       901461.07      899539.99      897689.03      1055.8879      4658.2367      73.366868      6591.4073      10654.625      17246.032      132300.53      40.443047      40.443047      80.886094          16004 
     22000   3228.395       903604.29      87.781129      904842.39      902140.64      903829.85     -292.39393      988.97291     -4036.563       6678.0969      10707.477      17385.574      132211.84      40.434008      40.434008      80.868015          16004 
     23000   3203.6846      902327.08      95.092027      902559.2       903838.76      900583.27     -2622.0277      214.47449      1466.5396      6626.982       10669.21       17296.192      132219.67      40.434806      40.434806      80.869612          16004 
     24000   3183.4633      890363.72      102.41901      889813.11      890119.35      891158.7       2809.0545      3852.8274     -1464.1693      6585.1533      10424.594      17009.747      132499.27      40.463287      40.463287      80.926574          16004 
     25000   3180.8823      906144.77      109.72327      905363.61      908031.89      905038.82      176.50602      1146.8868      801.67389      6579.8145      10762.342      17342.156      132113.11      40.42394       40.42394       80.847881          16004 
     26000   3234.8969      903237.07      117.03465      904065.67      904937.7       900707.82      866.41279     -165.05686      1898.8776      6691.5463      10546.402      17237.949      132194.52      40.432241      40.432241      80.864483          16004 
     27000   3222.4409      897476.71      124.34707      898949.36      896420.96      897059.81     -2303.7041     -177.03875     -2673.5976      6665.7804      10626.382      17292.162      132347.7       40.447852      40.447852      80.895704          16004 
     28000   3196.318       901727.05      131.65591      902080.37      902929.79      900170.98      1595.3125     -2605.7676      2123.3486      6611.7439      10653.191      17264.935      132166.36      40.42937       40.42937       80.85874           16004 
     29000   3205.73        900212.31      138.96408      900034.19      902427.25      898175.49     -4719.8047      185.41513     -6094.617       6631.2132      10618.152      17249.365      132281.62      40.441119      40.441119      80.882238          16004 
     30000   3224.6747      897191.26      146.28065      898720.9       897652.12      895200.77     -945.80317     -2223.2904      560.06276      6670.4012      10586.093      17256.494      132332.51      40.446305      40.446305      80.89261           16004 
     31000   3202.9905      907674.28      153.59004      905496.7       907813.04      909713.11      486.0143      -2360.4162     -1635.131       6625.5463      10680.122      17305.668      132074.25      40.419977      40.419977      80.839953          16004 
     32000   3212.5533      890896.62      160.91739      890817.5       890421.59      891450.76      677.30197      1892.1247      575.71851      6645.3274      10469.44       17114.768      132482.97      40.461628      40.461628      80.923255          16004 
     33000   3195.789       898895.52      168.26307      898058.18      899265.34      899363.03     -4525.2076     -1585.8441      2741.7904      6610.6497      10549.438      17160.088      132285.05      40.44147       40.44147       80.882939          16004 
     34000   3202.8285      901003.78      175.58754      901735.17      900913.49      900362.68      16.580161     -2208.1162      5018.5095      6625.2112      10690.526      17315.737      132235.62      40.436431      40.436431      80.872863          16004 
     35000   3211.991       899596.11      182.89789      899401.63      900258.59      899128.13     -101.00893      1802.427      -666.47256      6644.1643      10556.522      17200.686      132259.12      40.438826      40.438826      80.877652          16004 
     36000   3226.269       898576.6       190.20813      900845.55      898127.43      896756.83      835.59818      664.39927      2636.4506      6673.6991      10580.875      17254.574      132294.26      40.442408      40.442408      80.884815          16004 
     37000   3196.9194      904087.02      197.51912      903857.08      904259.33      904144.65     -2221.6888     -2461.1294     -1521.8558      6612.988       10622.483      17235.47       132164.48      40.429179      40.429179      80.858358          16004 
     38000   3227.2937      896074.49      204.84127      896526.35      897403.63      894293.49      200.96579     -2480.1956      1725.6991      6675.8188      10587.658      17263.477      132349.84      40.448071      40.448071      80.896142          16004 
     39000   3184.0406      898996.04      212.16542      899328.24      898095.75      899564.12     -1684.3846     -785.04961     -1124.2552      6586.3475      10536.552      17122.899      132309.46      40.443956      40.443956      80.887912          16004 
     40000   3220.0112      911451.61      219.48178      911330.14      909459.54      913565.14      364.07372      4970.2545     -1664.4278      6660.7545      10787.485      17448.24       131985.9       40.410961      40.410961      80.821922          16004 
     41000   3171.3632      897693.82      226.80361      898158.43      897453.61      897469.43      4439.4711      5786.4781     -656.01951      6560.1237      10595.179      17155.303      132344.86      40.447563      40.447563      80.895125          16004 
     42000   3226.9693      898708.5       234.11873      899304.01      898153.81      898667.68      351.27234     -1137.1611      941.55804      6675.1478      10679.453      17354.601      132291.2       40.442095      40.442095      80.884191          16004 
     43000   3176.4792      900631.06      241.43862      902042.06      899234.45      900616.68      4967.4526      1755.6653     -3835.8732      6570.7063      10674.346      17245.053      132247.48      40.43764       40.43764       80.87528           16004 
     44000   3187.8718      896894.3       248.75832      897387.37      898712.08      894583.46     -2965.8409      1498.6257      3074.9489      6594.2726      10542.286      17136.559      132349.4       40.448025      40.448025      80.896051          16004 
     45000   3209.6824      906488.6       256.10732      905351.59      906317.63      907796.59      1113.9221     -6177.7947      3442.9031      6639.3888      10685.977      17325.366      132134.02      40.426073      40.426073      80.852145          16004 
     46000   3196.5642      900635.32      263.42691      902095.61      899738.78      900071.56      30.052277      438.66312     -1165.3954      6612.2531      10592.049      17204.302      132198.35      40.432632      40.432632      80.865264          16004 
     47000   3175.8832      894289.32      270.75018      893982.76      892865.33      896019.86     -3230.1878     -2940.6259      377.50673      6569.4736      10584.162      17153.636      132408.24      40.454019      40.454019      80.908038          16004 
     48000   3231.181       901002.83      278.0774       902888.42      899840.29      900279.77      4331.2371      1807.2748     -663.36667      6683.8598      10712.538      17396.397      132248.83      40.437778      40.437778      80.875555          16004 
     49000   3194.5707      898956.04      285.40105      899904.74      897148.17      899815.22      1767.4703     -3176.3136     -1123.6167      6608.1296      10594.04       17202.17       132279.7       40.440924      40.440924      80.881848          16004 
     50000   3206.523       899423.62      292.72141      900318.89      897347.12      900604.84     -1552.2864      1901.9993      5544.0539      6632.8534      10702.167      17335.021      132290.83      40.442058      40.442058      80.884117          16004 
     51000   3215.9108      906231.5       300.04686      906381.74      906181.07      906131.68      1564.2928      1686.0564      434.05914      6652.2727      10692.81       17345.083      132078.79      40.420439      40.420439      80.840879          16004 
     52000   3217.0284      892197.53      307.37361      892985.65      890544.55      893062.39     -1469.1946      3879.882      -1189.5341      6654.5844      10414.61       17069.194      132472.38      40.46055       40.46055       80.921099          16004 
     53000   3195.3028      900449.9       314.70226      900291.97      898663.99      902393.73      811.5017      -4168.6606      902.97254      6609.6438      10653.989      17263.633      132233.92      40.436258      40.436258      80.872516          16004 
     54000   3188.136       901405.27      322.05233      899869.57      901855.13      902491.1       3688.651      -111.96318     -3457.8184      6594.8191      10644.409      17239.228      132216.63      40.434496      40.434496      80.868992          16004 
     55000   3190.9981      896285.39      329.40964      899361.27      894307.84      895187.06     -453.45957      1702.4545     -99.25179       6600.7395      10592.9        17193.64       132354.26      40.448521      40.448521      80.897041          16004 
     56000   3210.6971      897166.55      336.74126      899965.47      896325.38      895208.81      1477.0044     -3031.7964      919.09118      6641.4879      10508.176      17149.664      132318.81      40.444909      40.444909      80.889817          16004 
     57000   3222.6254      905475.49      344.072        904544.49      907955.34      903926.65     -1651.8835     -3510.8342      1876.5658      6666.1621      10804.497      17470.659      132154.59      40.42817       40.42817       80.85634           16004 
     58000   3201.7624      899299.56      351.40526      899695.02      899567.56      898636.1       1606.6698      3295.2924     -3233.7294      6623.006       10558.495      17181.501      132244.48      40.437334      40.437334      80.874668          16004 
     59000   3135.8895      894197.35      358.74475      892735.99      895873.43      893982.63      1240.9153     -3373.4335      2475.1704      6486.7446      10571.991      17058.736      132385.79      40.451732      40.451732      80.903465          16004 
     60000   3213.8931      905410.16      366.07433      904728.16      906055         905447.32      2855.2805     -1234.5874     -2487.6305      6648.099       10716.075      17364.174      132107.87      40.423406      40.423406      80.846811          16004 
     61000   3161.7753      896884.61      373.40577      897557.23      897053.47      896043.14     -2635.5846     -5883.1804      1981.6175      6540.2905      10576.131      17116.421      132341.54      40.447225      40.447225      80.89445           16004 
     62000   3192.2545      896456.19      380.72808      895811.76      898826.76      894730.05      7282.0761      2279.3581     -4894.3293      6603.3384      10619.81       17223.149      132357.34      40.448835      40.448835      80.897669          16004 
     63000   3186.4935      906599.83      388.05645      907474.67      906657.81      905667.01     -1437.9461      3659.1394      4095.2553      6591.4215      10642.511      17233.932      132102.83      40.422891      40.422891      80.845782          16004 
     64000   3199.9314      898080.69      395.3833       898017.35      899688.47      896536.27     -13.679635      279.47134      5294.6089      6619.2183      10585.402      17204.621      132303.47      40.443346      40.443346      80.886692          16004 
     65000   3210.9122      897506.29      402.71374      896911.19      897486.31      898121.37     -1643.9383     -3536.6137      3349.5296      6641.9328      10629.005      17270.937      132335.69      40.446629      40.446629      80.893257          16004 
     66000   3202.6205      905474.43      410.04849      904908.69      907306.07      904208.54     -2313.1104      488.18015      391.92356      6624.7809      10650.17       17274.951      132129.77      40.425639      40.425639      80.851277          16004 
     67000   3226.1027      896310.59      417.37514      897676.78      895015.85      896239.15     -1447.4221     -4452.2074      693.36619      6673.3551      10611.743      17285.098      132387.86      40.451943      40.451943      80.903887          16004 
     68000   3234.1461      897566.99      424.69944      896731.23      897725         898244.75     -2397.8239      2721.7685     -295.4651       6689.9933      10554.844      17244.837      132317.66      40.444792      40.444792      80.889583          16004 
     69000   3212.8427      903054.85      432.02368      903784.07      901192.38      904188.11     -4110.5798      750.99386     -2539.5517      6645.9261      10693.432      17339.358      132140.99      40.426783      40.426783      80.853567          16004 
     70000   3191.2376      894692.51      439.34638      891736.93      896744.95      895595.66      1024.2751     -2571.0723     -964.1788       6601.2348      10555.38       17156.615      132384.22      40.451572      40.451572      80.903144          16004 
     71000   3204.3261      900219.77      446.66617      900681.21      900213.54      899764.56     -86.80936       2380.3669      1147.6077      6628.309       10627.688      17255.997      132266.43      40.439571      40.439571      80.879142          16004 
     72000   3210.4213      904890.87      453.98829      904388.62      908036.14      902247.84     -698.7804      -77.795142     -1939.4857      6640.9173      10741.048      17381.965      132135.32      40.426205      40.426205      80.852409          16004 
     73000   3210.0178      893908.13      461.31242      895350.68      896714.39      889659.32      1068.64       -2653.5601     -3128.3511      6640.0825      10515.69       17155.772      132405.81      40.453772      40.453772      80.907543          16004 
     74000   3226.7739      900943.08      468.64224      903752.53      898019.01      901057.72      2974.9169      1098.6628     -2127.2228      6674.7434      10677.888      17352.631      132292.35      40.442213      40.442213      80.884426          16004 
     75000   3193.3906      902363.07      475.98166      903350.67      900287.34      903451.2      -4212.0842     -3887.3614      2285.7933      6605.6885      10683.031      17288.72       132198.18      40.432614      40.432614      80.865229          16004 
     76000   3205.349       898619.52      483.34658      898503.11      898355.38      899000.06     -3615.6162      716.2041       2986.3544      6630.425       10584.293      17214.718      132326.36      40.445678      40.445678      80.891356          16004 
     77000   3171.8131      900587.39      490.67856      899484.82      900725.11      901552.22     -1630.8843      1809.6242     -2325.4637      6561.0544      10622.441      17183.495      132204.9       40.4333        40.4333        80.8666            16004 
     78000   3203.4878      899730.04      498.007        896832.58      899386.52      902971.01     -3183.7342      1777.1928     -2022.1205      6626.5751      10698.481      17325.056      132225.1       40.435358      40.435358      80.870717          16004 
     79000   3183.9875      891857.57      505.33621      892628.29      891384.76      891559.65     -8128.3153      1205.4482      4381.3155      6586.2377      10517.019      17103.257      132495.72      40.462926      40.462926      80.925852          16004 
     80000   3227.0678      903577.87      512.66314      903883.21      899740.11      907110.3      -1105.0486     -2085.3181     -1627.0447      6675.3515      10656.918      17332.27       132142.91      40.426979      40.426979      80.853959          16004 
     81000   3210.744       900750.03      519.9968       901612.06      899279.25      901358.78     -4860.7387     -3620.6444      1166.5134      6641.5847      10703.086      17344.671      132255.61      40.438469      40.438469      80.876938          16004 
     82000   3190.9812      898310.45      527.31951      899608.39      897889.36      897433.59     -429.20513      1407.7292     -53.109948      6600.7045      10644.657      17245.362      132277.91      40.440742      40.440742      80.881483          16004 
     83000   3188.0676      898241.97      534.63449      898592.06      897870.09      898263.75      1769.8851      2214.3647     -1803.3193      6594.6776      10651.766      17246.444      132300.06      40.442999      40.442999      80.885998          16004 
     84000   3177.8709      898670.91      541.95366      899101.23      897353.7       899557.79      2777.6005     -1451.4917      1926.4159      6573.5852      10657.702      17231.287      132296.9       40.442676      40.442676      80.885353          16004 
     85000   3229.0063      902126.36      549.28148      901056.68      904426.92      900895.49      515.44919      1597.5013     -2186.033       6679.3613      10639.077      17318.439      132232.53      40.436116      40.436116      80.872232          16004 
     86000   3198.2491      893172.06      556.60557      894094.5       893044.5       892377.18      189.72608      2926.0466     -2720.1753      6615.7385      10521.299      17137.038      132470.87      40.460396      40.460396      80.920791          16004 
     87000   3167.2335      898539.31      563.92433      899420.52      898868.72      897328.71      3376.67       -1721.979       1203.369       6551.5813      10528.698      17080.279      132293.24      40.442304      40.442304      80.884608          16004 
     88000   3200.3964      903780.63      571.25364      903793.47      904641.3       902907.12      1328.05       -381.97496     -692.62873      6620.1803      10652.599      17272.78       132154.53      40.428164      40.428164      80.856329          16004 
     89000   3178.8129      900122.2       578.5709       899956.2       901151.87      899258.54     -1702.9573     -5204.1434      1470.5797      6575.5338      10706.446      17281.98       132272.33      40.440173      40.440173      80.880346          16004 
     90000   3195.4694      901358.88      585.89048      900193.22      902325.3       901558.11     -2471.3494     -582.54314      1530.9703      6609.9885      10572.366      17182.355      132197.43      40.432538      40.432538      80.865077          16004 
     91000   3185.8896      901499.3       593.20962      900892.05      901568.16      902037.68     -1416.4191     -3465.2916      195.38279      6590.1723      10696.49       17286.662      132238.17      40.436691      40.436691      80.873382          16004 
     92000   3167.0371      902475.18      600.53097      903658.37      899916.06      903851.11     -3341.8231      1846.7911     -1944.0678      6551.1749      10684.229      17235.404      132190.62      40.431844      40.431844      80.863687          16004 
     93000   3185.2893      897887.05      607.84806      897614.78      895662.3       900384.07      5075.736      -244.55834     -1569.0048      6588.9305      10604.843      17193.774      132280.19      40.440974      40.440974      80.881948          16004 
     94000   3204.2792      892234.63      615.16571      890546.31      892893.47      893264.12     -509.13217     -2106.3871     -1581.2733      6628.212       10622.52       17250.732      132486         40.461936      40.461936      80.923873          16004 
     95000   3185.3114      908937.05      622.48725      908439.95      910840.87      907530.34      209.97257     -3535.6589     -3317.084       6588.9762      10808.158      17397.135      131997.44      40.412139      40.412139      80.824279          16004 
     96000   3157.8316      897789.89      629.82174      899736.43      895338.22      898295.02     -323.82306     -2471.6586     -1460.9908      6532.1329      10558.226      17090.359      132329.88      40.446037      40.446037      80.892074          16004 
     97000   3205.6277      897830.64      637.17396      897831.28      896041.74      899618.9       2466.2765      2788.8818     -3350.4846      6631.0016      10609.43       17240.432      132335.4       40.4466        40.4466        80.893199          16004 
     98000   3191.9278      899465.01      644.51595      898565.33      898627.56      901202.14      848.65951     -4041.9306     -3501.9854      6602.6625      10588.564      17191.227      132237.19      40.436591      40.436591      80.873183          16004 
     99000   3227.4162      901123.23      651.83863      901878.47      903048.94      898442.27      3833.1348     -2603.6922      1639.421       6676.0721      10598.512      17274.584      132258.89      40.438803      40.438803      80.877606          16004 
    100000   3188.467       895738.47      659.17005      898537.33      894706.29      893971.8      -2768.6531     -2469.8128     -746.25102      6595.5036      10580.752      17176.255      132394.79      40.452649      40.452649      80.905298          16004 
    101000   3197.3905      908178.97      666.48281      908030.13      908456.73      908050.06     -2189.9077      6864.1372      4950.1708      6613.9623      10777.247      17391.21       132088.3       40.421409      40.421409      80.842818          16004 
    102000   3203.1824      897692.9       673.81014      896905.08      898553.2       897620.43     -2646.597       3190.7068      4182.1026      6625.9433      10563.743      17189.686      132343.62      40.447437      40.447437      80.894873          16004 
    103000   3184.3852      897364.36      681.14094      896881.51      898375.21      896836.38      3852.7702     -1162.407      -2078.3875      6587.0604      10598.557      17185.618      132328.5       40.445896      40.445896      80.891792          16004 
    104000   3195.4577      905887.49      688.45446      907419.92      904749.66      905492.9      -2567.846       4707.1082     -590.75555      6609.9644      10748.864      17358.829      132164.09      40.429139      40.429139      80.858278          16004 
    105000   3213.3842      897779.69      695.76011      896907.28      897331.01      899100.8       2455.4544      3076.9447      6317.6055      6647.0462      10529.772      17176.818      132324.49      40.445488      40.445488      80.890976          16004 
    106000   3225.431       899976.98      703.07133      898611.13      900368.71      900951.11     -4036.1307      2781.6693     -7795.6694      6671.9656      10685.123      17357.088      132323.66      40.445403      40.445403      80.890807          16004 
    107000   3206.0261      906519.02      710.38974      909547.28      904725.81      905283.98     -1452.9715     -3987.8834     -720.68661      6631.8256      10660.818      17292.644      132091.71      40.421757      40.421757      80.843514          16004 
    108000   3203.9104      892485         717.71919      893077.89      894681.05      889696.07     -4021.6614     -3017.1471      1472.5632      6627.4491      10472.961      17100.41       132481.19      40.461447      40.461447      80.922894          16004 
    109000   3183.7367      900308.76      725.04447      900958.24      901310.83      898657.23     -5.3778941      2945.4531      1630.7838      6585.719       10676.006      17261.725      132267.51      40.439682      40.439682      80.879364          16004 
    110000   3205.4519      903133.37      732.36319      904304.83      902903.49      902191.79     -548.538        2839.8815     -517.26765      6630.6379      10632.059      17262.697      132187.08      40.431483      40.431483      80.862966          16004 
    111000   3202.3542      895130.33      739.68488      894754.2       896605.6       894031.19      5244.0323      1807.3196      837.95881      6624.2301      10576.437      17200.667      132370.46      40.45017       40.45017       80.900341          16004 
    112000   3168.7393      899020.7       747.0139       900361.75      898884.93      897815.4       1526.982      -5578.9135      3943.409       6554.6961      10574.541      17129.237      132219.7       40.434808      40.434808      80.869616          16004 
    113000   3254.5759      902113.68      754.34368      902824.8       901865.01      901651.25      3069.9271      3831.0596     -3852.2272      6732.2533      10587.184      17319.437      132232.83      40.436147      40.436147      80.872293          16004 
    114000   3194.0611      901395.11      761.66711      903075.29      900059.32      901050.71      3978.3659     -243.72212     -893.09333      6607.0754      10657.447      17264.522      132264.75      40.4394        40.4394        80.878801          16004 
    115000   3195.886       894073.53      768.99227      896261.56      893481.79      892477.22     -276.64898     -375.02612      1009.0833      6610.8504      10476.505      17087.355      132432.91      40.456532      40.456532      80.913063          16004 
    116000   3231.1088      911032.42      776.32586      910104.14      913402.34      909590.8       617.47246     -3192.9267      1821.0715      6683.7104      10839.461      17523.171      132018.55      40.414294      40.414294      80.828587          16004 
    117000   3202.9608      896585.6       783.6652       897540.1       895482.67      896734.03      1615.7129     -1016.5073     -532.60378      6625.4848      10617.327      17242.812      132331.18      40.446169      40.446169      80.892338          16004 
    118000   3189.3925      902650.62      791.02198      900427.06      904588.48      902936.32     -348.08696     -5090.9314      5236.2698      6597.4182      10577.545      17174.963      132182.16      40.430981      40.430981      80.861963          16004 
    119000   3217.4501      899076.97      798.38211      898487.74      899434.94      899308.23     -2555.4642     -1070.1792      2233.7831      6655.4568      10599.095      17254.552      132271.88      40.440127      40.440127      80.880254          16004 
    120000   3215.4535      899160.61      805.72092      896876.23      900028.63      900576.98      4184.1505      1949.9376     -4245.852       6651.3266      10666.093      17317.42       132320.09      40.44504       40.44504       80.890079          16004 
    121000   3222.4697      903387.48      813.06065      904021.5       904286.3       901854.64      21.24105       2801.849      -2007.9935      6665.8399      10599.116      17264.956      132203.03      40.433109      40.433109      80.866218          16004 
    122000   3164.4391      904162.87      820.40483      904562.63      903190.57      904735.42      150.58029     -4030.1793     -1261.4528      6545.8009      10666.33       17212.13       132094.99      40.422092      40.422092      80.844183          16004 
    123000   3207.7378      892719.04      827.74685      889578.14      897232.13      891346.84     -1066.0898     -5172.3279     -6252.5668      6635.3664      10531.049      17166.415      132465.27      40.459826      40.459826      80.919651          16004 
    124000   3203.9295      900492.38      835.10062      899392.69      902211.37      899873.07     -1091.3818      1591.975      -2806.47        6627.4888      10712.325      17339.813      132255.16      40.438423      40.438423      80.876845          16004 
    125000   3208.3361      901745.57      842.44695      901589.2       902188.86      901458.66     -2814.6506      1772.5281      4874.1717      6636.6039      10616.769      17253.373      132246.81      40.437572      40.437572      80.875143          16004 
    126000   3214.7046      899400.24      849.7872       900378.14      898788.64      899033.95      155.63873     -845.45254      3978.632       6649.7776      10641.715      17291.492      132261.85      40.439104      40.439104      80.878209          16004 
    127000   3147.9955      895997.3       857.12895      894746.76      896100.87      897144.27      4925.0593     -1473.9743      2310.9264      6511.7865      10618.211      17129.997      132377.4       40.450878      40.450878      80.901756          16004 
    128000   3211.9222      903881.84      864.46505      903193.18      903749.37      904702.96     -2290.8667     -2302.269      -1853.5784      6644.0221      10634.955      17278.977      132201.43      40.432946      40.432946      80.865893          16004 
    129000   3165.8677      903136.38      871.80995      903492.2       902509.73      903407.22     -5294.2078      1383.5068      1280.195       6548.756       10648.157      17196.913      132187.33      40.431508      40.431508      80.863016          16004 
    130000   3190.987       897096.54      879.15486      896674.19      896329.71      898285.72     -882.7668      -429.41576      3716.9287      6600.7164      10630.588      17231.304      132363.3       40.449442      40.449442      80.898884          16004 
    131000   3207.0903      902235.28      886.4855       900271.51      903729.81      902704.52      1845.423       1695.176       1953.6165      6634.027       10558.834      17192.861      132235.8       40.43645       40.43645       80.8729            16004 
    132000   3178.1175      900748.87      893.81288      898478.72      901169.56      902598.32      847.39347      380.86829     -4519.0772      6574.0952      10644.011      17218.106      132246.94      40.437586      40.437586      80.875171          16004 
    133000   3186.4999      899950.46      901.13864      901620.86      900975.88      897254.63     -613.35085     -371.99302     -1165.4804      6591.4346      10585.994      17177.429      132265.08      40.439434      40.439434      80.878867          16004 
    134000   3206.7047      900482.26      908.46679      900997.81      898230.3       902218.66      2752.9279     -5024.8621     -1049.294       6633.2293      10725.304      17358.533      132268.25      40.439757      40.439757      80.879515          16004 
    135000   3190.179       900739.24      915.79982      901272.64      900809.25      900135.82     -1992.0451      4367.7561      1346.933       6599.0451      10644.188      17243.233      132237.29      40.436602      40.436602      80.873204          16004 
    136000   3204.2965      908528.36      923.13287      909623.53      909409.96      906551.58      4707.9252      236.70771      319.47695      6628.2477      10809.627      17437.875      132092.46      40.421834      40.421834      80.843668          16004 
    137000   3203.4917      889615.88      930.46436      889678.85      890470.41      888698.39     -1873.5586      1700.5286      2487.4444      6626.583       10470.89       17097.473      132573.35      40.470827      40.470827      80.941654          16004 
    138000   3220.3005      902662.17      937.80339      902694.03      902923.94      902368.54      2069.8305     -3740.7705      269.79939      6661.3529      10543.061      17204.414      132212.77      40.434102      40.434102      80.868205          16004 
    139000   3198.6447      901565.9       945.15735      902437.22      899658.42      902602.05     -1454.6301      2954.0241     -889.96461      6616.5567      10738.541      17355.097      132276.81      40.440629      40.440629      80.881259          16004 
    140000   3194.7288      900383.77      952.52062      899567.18      900854.21      900729.92     -1719.312       4203.6887     -1484.5401      6608.4567      10593.268      17201.725      132257.07      40.438617      40.438617      80.877234          16004 
    141000   3254.0178      901091.59      959.86573      903283.88      899790.1       900200.8      -791.58723      4172.7761     -872.52145      6731.0988      10650.791      17381.89       132306.59      40.443664      40.443664      80.887329          16004 
    142000   3175.0072      902371.2       967.1986       899547.43      904711.2       902854.97     -2084.7224     -1975.0428      41.980664      6567.6615      10639.311      17206.973      132230.22      40.435881      40.435881      80.871761          16004 
    143000   3212.246       894806.36      974.53153      892998.84      895886.67      895533.56      4107.7524     -1320.4836      3311.9047      6644.6918      10455.47       17100.162      132387.02      40.451858      40.451858      80.903716          16004 
    144000   3213.9834      899685.25      981.87676      901765.55      898778.58      898511.62     -1674.0885     -1086.9108      89.923147      6648.2857      10580.325      17228.611      132343.13      40.447387      40.447387      80.894775          16004 
    145000   3202.859       905321.52      989.22817      904262.27      907398.46      904303.82     -3133.8169     -2948.15        422.65904      6625.2743      10705.54       17330.814      132146.08      40.427302      40.427302      80.854605          16004 
    146000   3176.3447      896867.07      996.57871      898895.99      896600.02      895105.22      1819.7981     -1574.4318     -752.98207      6570.4281      10588.519      17158.947      132346.27      40.447707      40.447707      80.895414          16004 
    147000   3188.418       900629.54      1003.9218      899589.32      901107.5       901191.78     -1551.3882     -2793.7463     -227.69852      6595.4023      10607.149      17202.552      132228.75      40.435731      40.435731      80.871463          16004 
    148000   3230.4188      902360.33      1011.2593      903605.23      901201.97      902273.78     -2552.7625     -2107.9089      7658.1675      6682.2831      10607.673      17289.956      132221.03      40.434944      40.434944      80.869888          16004 
    149000   3192.1432      897508.71      1018.5897      897902.2       895003.55      899620.39      1996.8523     -822.20907     -82.994928      6603.1081      10496.689      17099.797      132315.73      40.444595      40.444595      80.88919           16004 
    150000   3179.2676      902995.36      1025.9229      901031.59      903944.78      904009.7       305.22686     -2041.1304      3361.84        6576.4743      10689.718      17266.192      132183.19      40.431087      40.431087      80.862174          16004 
    151000   3172.0733      895372.11      1033.2638      894990.25      894120.54      897005.53      2446.6328      2077.7474     -3172.7769      6561.5926      10508.984      17070.577      132357.77      40.448878      40.448878      80.897756          16004 
    152000   3191.3803      895008.78      1040.6027      892175.22      896480.53      896370.61      2477.2156      2650.4561      764.1181       6601.53        10613.077      17214.607      132331.47      40.446199      40.446199      80.892398          16004 
    153000   3226.0726      905973.19      1047.9307      907661.68      904841.39      905416.5      -790.71372      522.52844     -1315.1727      6673.2928      10787.786      17461.079      132149.04      40.427604      40.427604      80.855209          16004 
    154000   3178.904       899302.24      1055.266       898004.89      899818.73      900083.1      -1812.4893      2119.6754      1859.5966      6575.7222      10601.872      17177.594      132287.34      40.441703      40.441703      80.883405          16004 
    155000   3219.6604      898891.83      1062.6044      899184.08      900767.15      896724.27     -130.14177      1111.382       2690.4845      6660.0289      10663.707      17323.736      132299.77      40.442969      40.442969      80.885937          16004 
    156000   3174.7521      903733.9       1069.9336      905968.91      903610.94      901621.86     -1052.5722      278.83049      3641.7801      6567.1338      10707.335      17274.469      132146.68      40.427364      40.427364      80.854728          16004 
    157000   3216.9338      897745.09      1077.2763      897513.52      897615.69      898106.06     -3833.7687      547.69109     -3746.9863      6654.3887      10609.04       17263.429      132285.99      40.441565      40.441565      80.883131          16004 
    158000   3177.2932      894193.64      1084.617       893372.71      893854.65      895353.57      1429.8951      4211.8028      4118.2747      6572.3901      10552.373      17124.763      132395.88      40.45276       40.45276       80.905519          16004 
    159000   3213.3761      904565.71      1091.9572      904278.9       903955.06      905463.16      547.42486     -1943.6289     -4370.9509      6647.0294      10719.139      17366.169      132169         40.429639      40.429639      80.859279          16004 
    160000   3207.7864      899710.14      1099.3075      899771.17      900292.95      899066.3      -1992.3751      4496.7931     -195.95836      6635.4669      10533.718      17169.185      132297.35      40.442723      40.442723      80.885445          16004 
    161000   3241.5558      896102.4       1106.6792      894166.46      897561.67      896579.06     -3335.6277     -3270.4383      1192.382       6705.3206      10626.047      17331.367      132361.72      40.44928       40.44928       80.89856           16004 
    162000   3207.3636      901759.93      1114.0314      899291.68      902730.34      903257.76      1124.7963     -709.39067     -7206.5839      6634.5923      10625.269      17259.861      132201.62      40.432965      40.432965      80.865931          16004 
    163000   3197.129       899503.94      1121.3729      899479.26      898459.44      900573.11     -4322.5327      1903.9673     -1649.039       6613.4216      10653.063      17266.484      132327.66      40.44581       40.44581       80.891621          16004 
    164000   3198.9735      894559.35      1128.7116      896115.19      894154.36      893408.48     -3822.4146      1050.4895     -4324.5761      6617.2369      10568.552      17185.789      132434.1       40.456652      40.456652      80.913305          16004 
    165000   3191.0555      906494.05      1136.0562      905685.83      906261.36      907534.96     -1825.2256     -4131.7715     -4205.0943      6600.8582      10704.481      17305.339      132072.84      40.419832      40.419832      80.839664          16004 
    166000   3226.095       899478.1       1143.4013      898672.17      898592.14      901169.98      642.79408      5065.3339      3895.2501      6673.3392      10626.367      17299.707      132324.67      40.445507      40.445507      80.891013          16004 
    167000   3223.4463      898878.72      1150.7496      900145.6       897076.29      899414.28      3371.767       1462.4802     -4671.5599      6667.8601      10552.188      17220.048      132307.13      40.443719      40.443719      80.887439          16004 
    168000   3211.9604      903361.98      1158.0834      902753.1       904106.18      903226.67     -3821.9487      3190.0266     -5291.4766      6644.1011      10730.193      17374.295      132177.25      40.43048       40.43048       80.860961          16004 
    169000   3187.7944      896311.23      1165.4202      896913.42      895386.55      896633.72      2187.5893      3341.7558     -168.4309       6594.1125      10566.836      17160.948      132333.22      40.446377      40.446377      80.892755          16004 
    170000   3188.1761      898954.8       1172.757       896540.65      899867.52      900456.24      868.68463      2958.8149     -2888.1085      6594.902       10704.049      17298.951      132280.02      40.440956      40.440956      80.881912          16004 
    171000   3207.0153      908279.93      1180.0873      907433.7       906533.75      910872.34     -729.17153     -2509.6875     -4767.1267      6633.8718      10730.094      17363.966      132049.69      40.417471      40.417471      80.834941          16004 
    172000   3185.5179      895511.69      1187.4222      896319.25      894350.02      895865.79      742.9403      -161.8333      -2131.473       6589.4035      10631.064      17220.468      132362.44      40.449354      40.449354      80.898709          16004 
    173000   3185.8886      896837.35      1194.7574      897257.99      896114.79      897139.28      5746.8735     -2073.7072      2014.5541      6590.1702      10515.862      17106.032      132273.83      40.440326      40.440326      80.880651          16004 
    174000   3187.2624      904879.04      1202.0918      904580.74      903596.45      906459.94      3234.2389     -1782.2167     -475.19475      6593.012       10739.222      17332.234      132156.45      40.42836       40.42836       80.85672           16004 
    175000   3145.1149      896250.78      1209.4134      898774.73      894099.41      895878.19     -786.73668      5889.1684     -3721.7238      6505.8277      10556.394      17062.221      132317.86      40.444813      40.444813      80.889625          16004 
    176000   3216.9532      900092.55      1216.7426      900282.84      900467.69      899527.12      2611.8091      1617.6206      3167.0338      6654.4288      10605.293      17259.722      132298.39      40.442828      40.442828      80.885656          16004 
    177000   3217.9591      905746.08      1224.073       907344.26      903867.71      906026.28      214.58213      923.86679     -1251.0789      6656.5095      10604.731      17261.241      132110.57      40.423681      40.423681      80.847361          16004 
    178000   3209.2023      895098.88      1231.4027      895358.65      896151.49      893786.51     -4635.6874     -2550.159       3905.4477      6638.3957      10566.086      17204.482      132441.13      40.457369      40.457369      80.914737          16004 
    179000   3227.0939      901525.77      1238.7273      901000.12      902216.01      901361.18      765.69743      9326.3112      2518.3712      6675.4053      10583.853      17259.259      132261.3       40.439048      40.439048      80.878097          16004 
    180000   3187.6472      905045.17      1246.064       903911.26      903659.22      907565.02     -1259.7784     -2322.4256     -3510.391       6593.808       10714.354      17308.162      132138.42      40.426521      40.426521      80.853042          16004 
    181000   3179.0164      894394.02      1253.4076      893301.28      894444.58      895436.21      4154.4475      3568.9896     -1831.6637      6575.9547      10520.742      17096.697      132413.91      40.454597      40.454597      80.909194          16004 
    182000   3213.2987      902248.41      1260.7617      903555.93      902795.66      900393.63     -778.16893      3984.3604     -4822.8186      6646.8693      10652.715      17299.585      132203.81      40.433189      40.433189      80.866378          16004 
    183000   3201.5789      900697.66      1268.1183      901519.94      899826.46      900746.59      98.178547     -1755.2768     -5114.5568      6622.6263      10594.499      17217.126      132237.03      40.436575      40.436575      80.873151          16004 
    184000   3187.5517      899402.69      1275.458       900709.74      900090.9       897407.45      288.00816     -893.52044     -483.29192      6593.6103      10657.453      17251.064      132295.85      40.44257       40.44257       80.885139          16004 
    185000   3212.0519      896208.36      1282.7939      895693.69      898465.77      894465.61      71.552983     -2145.2609     -441.37968      6644.2904      10549.481      17193.771      132374.54      40.450587      40.450587      80.901173          16004 
    186000   3230.6283      901594.94      1290.1269      901952.79      901202.51      901629.51      2251.6403     -1032.0083     -524.84923      6682.7165      10598.931      17281.647      132256.89      40.438599      40.438599      80.877197          16004 
    187000   3198.6163      909813.98      1297.4645      911397.66      908449.78      909594.5      -3308.2539      2583.1924     -5946.086       6616.4982      10799.602      17416.101      132011.41      40.413564      40.413564      80.827129          16004 
    188000   3201.724       894931.39      1304.8126      894716.52      893492.04      896585.61     -1105.0354     -1023.0662     -2182.0055      6622.9265      10567.807      17190.733      132421.47      40.455366      40.455366      80.910732          16004 
    189000   3171.4653      902338.38      1312.15        899916.82      903563.46      903534.85      670.79824     -3247.4979      909.383        6560.3349      10619.877      17180.212      132233.06      40.43617       40.43617       80.87234           16004 
    190000   3219.3982      900561.79      1319.4891      900917.57      898703.85      902063.95     -1133.8639      1239.4734     -2625.7692      6659.4866      10599.47       17258.956      132233.14      40.436179      40.436179      80.872357          16004 
    191000   3182.5796      899593.35      1326.8333      898936.9       899658.48      900184.67      1612.908       5399.7509      2641.9025      6583.3254      10598.943      17182.269      132237.99      40.436673      40.436673      80.873346          16004 
    192000   3222.9951      903071.6       1334.1769      903551.06      903476.98      902186.76     -543.29153      2888.6342      451.23043      6666.9269      10566.318      17233.245      132183.22      40.431089      40.431089      80.862179          16004 
    193000   3209.9985      897730.1       1341.5206      897672.89      898681.11      896836.31      2442.6037      476.67501     -2657.5495      6640.0427      10539.701      17179.743      132373.38      40.450468      40.450468      80.900936          16004 
    194000   3203.951       901932.91      1348.8676      903060.18      900330.76      902407.78     -257.64485     -5718.8484      6204.1756      6627.5332      10621.346      17248.879      132237.67      40.43664       40.43664       80.87328           16004 
    195000   3191.4849      907241.75      1356.206       907436.54      905823.7       908465.01     -697.40248      602.75454     -1080.5992      6601.7464      10713.718      17315.464      132069.54      40.419496      40.419496      80.838991          16004 
    196000   3227.0883      895389.96      1363.5458      895625.22      895503.78      895040.88     -3019.0968     -621.3621       496.99301      6675.3938      10572.703      17248.097      132426.83      40.455912      40.455912      80.911823          16004 
    197000   3205.6349      901089.76      1370.8773      900569.69      901859.69      900839.88     -385.35813      657.49937     -2423.1745      6631.0165      10575.442      17206.458      132221.67      40.435009      40.435009      80.870018          16004 
    198000   3198.4892      900622.55      1378.2074      900848.34      899115.01      901904.3       323.65787      441.05279     -907.60655      6616.2352      10551.156      17167.391      132246.49      40.437539      40.437539      80.875078          16004 
    199000   3216.2719      900316.92      1385.545       901791.94      900735.89      898422.94     -5067.41        2040.7582      748.47999      6653.0196      10675.25       17328.269      132273.93      40.440336      40.440336      80.880672          16004 
    200000   3178.8524      899407.71      1392.914       900162.72      899621.22      898439.18      3409.5517      1579.1816     -158.00574      6575.6154      10625.965      17201.581      132290.75      40.44205       40.44205       80.8841            16004 
    201000   3234.088       902315.04      1400.2361      901156.66      903684.63      902103.85      2736.9455      1055.7775      1284.9043      6689.8731      10666.812      17356.685      132237.59      40.436632      40.436632      80.873264          16004 
    202000   3179.8987      900665.4       1407.5714      900283.04      900620.79      901092.36      171.68735     -1977.4491     -521.10756      6577.7797      10654.985      17232.764      132249.24      40.43782       40.43782       80.875639          16004 
    203000   3230.6871      892886.68      1414.9313      892058.33      892259.04      894342.66     -4742.8712      2092.8438      3405.695       6682.8382      10549.133      17231.971      132494.65      40.462817      40.462817      80.925635          16004 
    204000   3212.0559      904746.99      1422.2885      902672.86      905027.82      906540.28      417.86804      2513.9579     -2277.2459      6644.2986      10658.979      17303.278      132133.67      40.426036      40.426036      80.852073          16004 
    205000   3222.7037      899909.26      1429.6296      901510.3       899197.2       899020.28      1046.6483      8070.6075      2184.339       6666.3241      10628.775      17295.099      132308.13      40.44382       40.44382       80.887641          16004 
    206000   3179.9577      898646.65      1436.9648      898049.68      898963.67      898926.59      200.38134      4616.7073      3275.2445      6577.9017      10600.504      17178.405      132292.8       40.442258      40.442258      80.884517          16004 
    207000   3219.5805      901286.34      1444.2982      901595.29      899832.43      902431.3       236.85481      5881.1438      649.62291      6659.8636      10647.896      17307.76       132272.75      40.440215      40.440215      80.880431          16004 
    208000   3187.2832      905906.91      1451.6307      908143.71      903595.94      905981.09      832.31655     -1254.3757     -5454.5646      6593.055       10706.728      17299.783      132120.48      40.424691      40.424691      80.849382          16004 
    209000   3182.4218      891557.62      1458.9694      890189.81      891207.97      893275.09     -605.66278     -1144.3456     -1381.5286      6582.999       10485.064      17068.063      132483.25      40.461657      40.461657      80.923314          16004 
    210000   3198.1502      896327.36      1466.2965      895727.79      897422         895832.28      3574.6974     -3055.3217      1568.5286      6615.5339      10553.293      17168.827      132342.87      40.44736       40.44736       80.89472           16004 
    211000   3219.9856      904945.71      1473.6291      901876.9       906987.69      905972.55     -2079.3434     -2098.6384      1343.0097      6660.7015      10614.753      17275.454      132171.87      40.429932      40.429932      80.859864          16004 
    212000   3209.3862      897745.22      1480.9567      896239.62      899606.74      897389.31     -1767.4316     -1658.0536     -3102.9963      6638.7762      10661.697      17300.473      132336.88      40.44675       40.44675       80.8935            16004 
    213000   3201.3673      900972.06      1488.2862      900973.71      901100.4       900842.08      3833.6318     -3707.7895      1402.2064      6622.1886      10591.103      17213.291      132237.62      40.436636      40.436636      80.873271          16004 
    214000   3197.1204      904459.64      1495.6166      903334.72      903903.75      906140.47     -843.17304      828.54795     -974.9128       6613.4037      10698.436      17311.839      132159.97      40.428719      40.428719      80.857438          16004 
    215000   3184.2748      891603.98      1502.9434      890523.76      893659.68      890628.49     -862.03003      1393.7939      827.5729       6586.8319      10519.197      17106.029      132447.6       40.458027      40.458027      80.916053          16004 
    216000   3198.978       899992.62      1510.2626      898644.79      900387.41      900945.65     -2057.3254      1122.1762     -2182.1515      6617.2463      10721.262      17338.508      132251.58      40.438058      40.438058      80.876116          16004 
    217000   3191.7788      904437.83      1517.5836      903703.22      902979.97      906630.32     -517.48332     -129.79077      4006.4551      6602.3543      10678.69       17281.044      132136.67      40.426343      40.426343      80.852685          16004 
    218000   3221.8154      895618.12      1524.898       895990.93      893965.36      896898.06      1404.6045      3281.9503     -1061.805       6664.4865      10713.58       17378.067      132393.63      40.452531      40.452531      80.905062          16004 
    219000   3213.5108      901543.11      1532.2161      901097.79      900959.15      902572.38     -4978.3476      2888.9302     -1127.9642      6647.308       10595.304      17242.612      132226.89      40.435541      40.435541      80.871083          16004 
    220000   3203.3007      902199.09      1539.5331      902669.9       899979.11      903948.25     -731.30402     -20.924795     -2609.7463      6626.188       10688.046      17314.234      132195.7       40.432362      40.432362      80.864724          16004 
    221000   3203.357       890753.7       1546.8458      891793.89      891799.71      888667.51      3172.0045      1711.194      -4895.4595      6626.3045      10408.095      17034.399      132502.42      40.463608      40.463608      80.927216          16004 
    222000   3184.2099      904052.53      1554.165       904026.7       904848.69      903282.22      3824.9397      2973.5125     -1598.7574      6586.6977      10667.147      17253.845      132189.39      40.431718      40.431718      80.863437          16004 
    223000   3199.4205      904290.42      1561.4836      905479.01      903589.05      903803.2      -338.749        3131.762       350.8797       6618.1616      10698.452      17316.614      132170.43      40.429785      40.429785      80.85957           16004 
    224000   3201.4379      896067.58      1568.8229      896989.15      897254.03      893959.55      2801.8973      6070.3064      84.210561      6622.3347      10454.459      17076.793      132384.99      40.451651      40.451651      80.903303          16004 
    225000   3227.8815      902145.49      1576.1722      901539.21      901629.05      903268.2       2839.5094     -3172.2098     -1509.0626      6677.0345      10636.417      17313.452      132239.41      40.436818      40.436818      80.873636          16004 
    226000   3201.5391      901383.84      1583.4982      901772.53      900257.13      902121.84     -3114.2797      5774.2242     -4675.7972      6622.544       10607.954      17230.498      132173.14      40.430062      40.430062      80.860123          16004 
    227000   3227.5407      896081.35      1590.8137      896038.4       893222.74      898982.9       2947.2118     -2666.4762      1298.8755      6676.3296      10599.535      17275.865      132367.14      40.449833      40.449833      80.899666          16004 
    228000   3196.9164      902308.14      1598.1375      902266.33      900716.94      903941.15      2106.6304      1282.442       153.66897      6612.9817      10651.241      17264.223      132186.48      40.431421      40.431421      80.862843          16004 
    229000   3227.9016      899854.84      1605.4636      898708.95      901765.02      899090.55     -2296.6616     -1852.5806     -4290.928       6677.0763      10625.524      17302.6        132302.35      40.443232      40.443232      80.886465          16004 
    230000   3172.022       893114.53      1612.7934      892336.87      894349.5       892657.21     -2617.2407      1407.4635      2264.8442      6561.4865      10497.377      17058.864      132487.86      40.462126      40.462126      80.924252          16004 
    231000   3174.5158      906901.66      1620.118       907201.33      908667.03      904836.61      2514.6559     -1517.2422      1524.8996      6566.6449      10805.001      17371.646      132114.79      40.424111      40.424111      80.848222          16004 
    232000   3192.3229      897786.14      1627.4421      897638.44      898680.14      897039.85     -399.15997     -2515.3029      2808.1952      6603.4799      10617.212      17220.692      132288.44      40.441814      40.441814      80.883628          16004 
    233000   3197.6211      899309.3       1634.7646      901204.53      897978.41      898744.96      356.09555      1852.1972     -1789.1085      6614.4395      10568.283      17182.722      132272.39      40.440179      40.440179      80.880358          16004 
    234000   3238.9024      900558.51      1642.0879      900885.18      899905.63      900884.71      3141.9635      735.96576      5881.0736      6699.8319      10622.556      17322.387      132238.3       40.436705      40.436705      80.87341           16004 
    235000   3156.6947      898743.34      1649.4141      898377.03      900729.03      897123.96      1301.3211      3996.9835      757.08352      6529.7811      10565.861      17095.642      132283.97      40.44136       40.44136       80.882719          16004 
    236000   3200.6721      900236.79      1656.7406      900397.63      899682.53      900630.19      1526.3002      587.49777      606.20068      6620.7505      10594.601      17215.351      132290.27      40.442001      40.442001      80.884003          16004 
    237000   3221.2278      908106.24      1664.0639      909731.23      906478.15      908109.36      3492.6391      2932.3169     -336.12289      6663.2711      10756.585      17419.856      132084.02      40.420973      40.420973      80.841946          16004 
    238000   3200.1978      894069.89      1671.3842      895039.86      892865.15      894304.66     -1650.1665     -1197.3757      3984.0074      6619.7695      10501.348      17121.117      132416.75      40.454885      40.454885      80.909771          16004 
    239000   3218.6602      898613.87      1678.7047      897014.02      897940.13      900887.46      497.66287      1450.2382      2126.1534      6657.9598      10602.41       17260.37       132313.32      40.44435       40.44435       80.8887            16004 
    240000   3215.4586      898636.23      1686.0247      897847.46      896981.25      901079.96      1481.0973     -810.16683      872.50529      6651.3372      10542.013      17193.35       132289.47      40.44192       40.44192       80.88384           16004 
    241000   3173.8906      899695.46      1693.3449      900623.3       898406.65      900056.44     -2831.2176     -1977.5883      2751.9256      6565.3517      10710.935      17276.287      132269.16      40.43985       40.43985       80.8797            16004 
    242000   3183.3242      900877.34      1700.6646      899992         898407.02      904233.02      3027.4152     -839.91022     -1438.0071      6584.8655      10618.011      17202.877      132232.97      40.436161      40.436161      80.872322          16004 
    243000   3228.0641      895030.96      1707.9862      894658.58      894894.32      895539.99      580.58568     -3258.9567     -106.5115       6677.4124      10588.889      17266.302      132402.68      40.453452      40.453452      80.906905          16004 
    244000   3183.9315      900569.69      1715.3153      900363.04      898227.91      903118.13      211.21968      2636.7428     -987.26374      6586.1218      10629.891      17216.013      132243.03      40.437187      40.437187      80.874374          16004 
    245000   3228.5463      905067.59      1722.651       904599.66      903482.86      907120.25      3966.8466     -982.16604      1059.0466      6678.4098      10710.286      17388.696      132139.01      40.426582      40.426582      80.853163          16004 
    246000   3242.7553      896682.85      1730.0063      896677.66      896361.02      897009.86      5455.9753     -3365.5958      3720.6437      6707.8019      10555.241      17263.043      132359.79      40.449084      40.449084      80.898169          16004 
    247000   3186.3817      899008.39      1737.3472      898033.03      900010.68      898981.47     -3447.2369     -3818.2833      2469.3956      6591.1903      10586.921      17178.111      132321.25      40.445158      40.445158      80.890315          16004 
    248000   3183.1585      902188.26      1744.6776      902173.87      900410.79      903980.13      3197.2959      125.26742     -1788.0893      6584.5228      10716.381      17300.904      132228.22      40.435677      40.435677      80.871354          16004 
    249000   3197.146       899957.93      1752.0159      898954         900361.78      900558.01     -3129.4646      4583.2369      1530.9345      6613.4566      10604.751      17218.207      132263.93      40.439317      40.439317      80.878634          16004 
    250000   3228.8432      891540.12      1759.3584      891775.04      892700.11      890145.2       2880.5861      684.3983       690.2659       6679.024       10494.543      17173.567      132474.04      40.460719      40.460719      80.921438          16004 
    251000   3210.7286      908484.88      1766.7011      907069.23      908822.11      909563.28      2651.4048      1448.0454     -5689.8068      6641.553       10705.856      17347.409      132067.74      40.419312      40.419312      80.838623          16004 
    252000   3205.3939      900777.95      1774.036       900571         901530.95      900231.88      380.28771      4076.4199      2373.9763      6630.5178      10643.619      17274.136      132237.19      40.436592      40.436592      80.873183          16004 
    253000   3197.0818      899109.4       1781.3635      898553.38      898236.62      900538.21      299.84579     -3213.856       650.73934      6613.3239      10565.199      17178.523      132290.12      40.441986      40.441986      80.883972          16004 
    254000   3172.6496      901429.21      1788.6906      900534.19      900598.28      903155.16     -1267.9651      598.33644     -610.17852      6562.7846      10672.586      17235.371      132257.16      40.438627      40.438627      80.877254          16004 
    255000   3199.57        893836.12      1796.0227      891263.39      894238.27      896006.7      -668.18477     -4594.9443     -1227.3188      6618.4709      10588.115      17206.586      132426.03      40.45583       40.45583       80.91166           16004 
    256000   3187.1151      903315         1803.3528      898850.89      905932.28      905161.82     -1883.4394     -2298.044       1875.9206      6592.7072      10652.957      17245.664      132169.9       40.429731      40.429731      80.859463          16004 
    257000   3212.5673      903169.31      1810.6844      903207.3       904760.72      901539.9       3454.9537      1904.903       227.01016      6645.3565      10633.748      17279.104      132197.63      40.432559      40.432559      80.865117          16004 
    258000   3188.7042      894369.69      1818.0209      894062.39      894536.85      894509.83      1504.5608     -3230.3464     -2800.6225      6595.9943      10545.361      17141.355      132420.73      40.455291      40.455291      80.910582          16004 
    259000   3186.4062      902428.13      1825.3445      905170.04      900727.24      901387.12     -5883.1918      1314.6763      2443.5338      6591.241       10560.801      17152.041      132188.23      40.431601      40.431601      80.863201          16004 
    260000   3214.7629      905120.24      1832.6659      905102.17      905129.53      905129.01     -57.966647      3600.9958     -1939.5665      6649.8982      10666.183      17316.082      132158.69      40.428588      40.428588      80.857176          16004 
    261000   3183.3503      892592.02      1839.9921      894358.36      889364.39      894053.31     -3318.9839      2254.1955      540.56504      6584.9197      10397.998      16982.917      132460.17      40.459307      40.459307      80.918613          16004 
    262000   3184.8908      900485.65      1847.3096      900383.55      901549.21      899524.19      1232.578      -2728.6742     -1190.8529      6588.1061      10649.745      17237.851      132258.3       40.438743      40.438743      80.877487          16004 
    263000   3212.1833      900734.09      1854.624       900098.21      901937.17      900166.9       4581.7162     -1915.9453     -2442.7175      6644.5621      10640.634      17285.196      132274.1       40.440353      40.440353      80.880707          16004 
    264000   3209.9159      899150.3       1861.9417      899342.8       899527.95      898580.16     -1917.1271     -1038.2421     -4359.6685      6639.8719      10564.832      17204.704      132330.1       40.446059      40.446059      80.892119          16004 
    265000   3205.9395      896657.4       1869.2614      897825.08      897370.68      894776.46      3047.0266      1258.6579     -279.27871      6631.6464      10584.847      17216.494      132388.41      40.451999      40.451999      80.903999          16004 
    266000   3160.9636      906227.87      1876.5885      906603.8       905890.87      906188.93     -697.81737      22.230694     -2489.3588      6538.6116      10720.537      17259.148      132104.65      40.423077      40.423077      80.846154          16004 
    267000   3182.9679      894719.78      1883.9244      895880.27      892740.29      895538.79     -3221.6124      1721.6697     -748.09608      6584.1285      10578.011      17162.14       132445.62      40.457825      40.457825      80.915651          16004 
    268000   3176.21        898453.67      1891.2753      897793.99      898458.35      899108.67      544.22598     -2405.6092     -1016.984       6570.1495      10582.07       17152.22       132301.42      40.443138      40.443138      80.886275          16004 
    269000   3228.3597      905063.14      1898.6041      906251.58      902019.95      906917.88     -636.2639      -9918.7945     -2150.4947      6678.0238      10644.533      17322.557      132163.92      40.429122      40.429122      80.858244          16004 
    270000   3203.4834      897523.88      1905.9284      897847.65      897866.1       896857.9      -1852.9899      2441.7608      1962.3224      6626.566       10566.346      17192.912      132349.92      40.448078      40.448078      80.896157          16004 
    271000   3194.1771      898513.11      1913.2518      899736.78      897515.79      898286.76     -870.81385     -3014.1874     -2785.8508      6607.3153      10579.439      17186.755      132280.85      40.441041      40.441041      80.882083          16004 
    272000   3202.651       903328.24      1920.582       902037.18      903158.04      904789.49     -4925.2246      5151.6311      2190.9946      6624.844       10694.051      17318.895      132200.74      40.432876      40.432876      80.865751          16004 
    273000   3155.3717      897382.78      1927.9151      897959.78      896822.69      897365.87      3923.2022     -5891.0538      1351.5712      6527.0445      10633.502      17160.547      132350.49      40.448136      40.448136      80.896272          16004 
    274000   3182.6891      901417.18      1935.2433      901610.34      902183.17      900458.04     -998.84218      1200.9397      3626.8933      6583.5518      10617.054      17200.606      132234.81      40.436348      40.436348      80.872697          16004 
    275000   3196.8437      904282.11      1942.5722      907540.19      905074.11      900232.02      2179.6521      3867.6341     -1140.8598      6612.8313      10765.121      17377.952      132159.97      40.428719      40.428719      80.857438          16004 
    276000   3185.2064      891657.97      1949.8985      893518.32      891626.43      889829.16      189.14967      2029.4176     -4227.1078      6588.7591      10480.74       17069.499      132482.54      40.461584      40.461584      80.923168          16004 
    277000   3203.6777      900868.18      1957.2313      902208.39      899666.6       900729.56      3526.834       2711.6368     -2186.5517      6626.9679      10620.159      17247.127      132224.75      40.435324      40.435324      80.870647          16004 
    278000   3224.5047      902289.43      1964.5591      901784.01      902745.72      902338.57     -2627.0702      2634.8533      1524.7083      6670.0496      10608.872      17278.922      132242.08      40.43709       40.43709       80.874179          16004 
    279000   3184.1904      899758.53      1971.8864      896826.28      899736         902713.31     -2805.8324     -1515.7065      146.63583      6586.6574      10668.082      17254.74       132274.68      40.440412      40.440412      80.880825          16004 
    280000   3206.1627      897989.71      1979.2101      899390.28      896943.62      897635.24     -1870.5056     -1524.9258     -2314.6835      6632.1081      10674.529      17306.637      132354.35      40.44853       40.44853       80.897061          16004 
    281000   3182.8836      899989.78      1986.525       899169.27      899580.23      901219.85      7079.3375     -2734.3957      8.4521974      6583.9542      10639.413      17223.367      132259.77      40.438893      40.438893      80.877785          16004 
    282000   3225.017       905203.95      1993.8385      905441.3       905908.29      904262.26      2136.9165     -1527.7518     -2994.7897      6671.1092      10720.301      17391.41       132150.32      40.427735      40.427735      80.855469          16004 
    283000   3219.9509      890992.11      2001.1578      891478.51      890909.18      890588.63     -875.49694     -3089.7441     -741.44932      6660.6297      10441.881      17102.511      132461.74      40.459466      40.459466      80.918933          16004 
    284000   3168.7021      898265.3       2008.4788      899803.97      897283.04      897708.9       1914.3147      3038.0081     -5688.112       6554.6191      10590.508      17145.127      132279.66      40.44092       40.44092       80.88184           16004 
    285000   3213.6045      901629.1       2015.7994      902017.79      901389.5       901479.99      3670.0739      1017.2641      1027.5472      6647.502       10673.952      17321.454      132198.34      40.432631      40.432631      80.865261          16004 
    286000   3180.9778      898351.77      2023.1211      897848.15      898469.82      898737.34      781.80488     -4396.3311     -1156.9565      6580.012       10644.022      17224.034      132314.09      40.444428      40.444428      80.888856          16004 
[...]
   3930000   4355.9928      908195.57      7489.4837      928796.75      929332.07      866457.88      68540.474     -806.17377      989.79882      9010.5894      21180.132      30190.721      117671.31      39.138254      39.138254      76.818831          16004 
   3931000   4343.1191      890882.35      7497.5269      908741.09      911130.09      852775.86      64961.796      2600.5366     -2015.3531      8983.9595      21020.937      30004.897      118000.96      39.174767      39.174767      76.890498          16004 
   3932000   4323.0228      904835.91      7505.5799      922864.79      925108.69      866534.26      67576.661      1994.5616     -378.96376      8942.3892      21187.505      30129.895      117777.85      39.150062      39.150062      76.842008          16004 
   3933000   4322.89        899655.08      7513.6282      920646.08      921113.08      857206.07      67134.362     -4457.7464      2240.3634      8942.1145      21140.845      30082.959      117861.21      39.159297      39.159297      76.860133          16004 
   3934000   4310.4937      897503.86      7521.6813      916352.01      916466.4       859693.18      70991.973      188.75676     -1484.9941      8916.4721      21134.732      30051.204      117917.73      39.165555      39.165555      76.872416          16004 
   3935000   4342.9168      902357.61      7529.728       921001.18      923571.15      862500.51      65024.923      3248.8526     -2996.0528      8983.5411      21141.822      30125.363      117785.28      39.150886      39.150886      76.843624          16004 
   3936000   4347.2398      892452         7537.7807      911625.79      910004.39      855725.83      64822.463      4119.6777      4969.9126      8992.4833      20991.306      29983.79       118036.73      39.178726      39.178726      76.898266          16004 
   3937000   4354.908       906520.47      7545.836       928884.14      926862.39      863814.88      70474.473      875.71287      6389.8315      9008.3453      21171.43       30179.775      117686.64      39.139953      39.139953      76.822166          16004 
   3938000   4340.3432      902776.4       7553.8919      926997.64      917733.08      863598.48      64568.294     -9167.1397     -4608.596       8978.2174      21120.058      30098.275      117831.15      39.155968      39.155968      76.853598          16004 
   3939000   4324.2256      898902.9       7561.9388      920126.54      919172.37      857409.8       64748.056     -1312.1482     -431.78515      8944.8773      21105.421      30050.299      117915.89      39.165352      39.165352      76.872017          16004 
   3940000   4336.3601      904621.11      7569.9958      924280.25      926193.16      863389.93      66394.222      1211.0577      6609.4177      8969.9781      21192.744      30162.722      117712.83      39.142857      39.142857      76.827865          16004 
   3941000   4320.6411      898522.55      7578.0447      920990.26      914808.78      859768.61      70203.214     -4377.3886     -992.51986      8937.4625      21075.231      30012.693      117977.6       39.172182      39.172182      76.885424          16004 
   3942000   4353.4001      896722.18      7586.1064      918667.52      920482.91      851016.13      65764.428     -6972.1584     -269.959        9005.2263      21097.652      30102.878      117815.77      39.154264      39.154264      76.850254          16004 
   3943000   4365.9726      905114         7594.1632      928151.94      923446.38      863743.67      64856.452     -4489.636       326.96691      9031.233       21172.871      30204.104      117634.78      39.134203      39.134203      76.81088           16004 
   3944000   4364.702       896998.92      7602.2081      918542.23      916763.58      855690.94      68044.054     -2424.1938     -3824.8         9028.6048      21015.3        30043.905      117917.26      39.165503      39.165503      76.872314          16004 
   3945000   4381.7471      904600.65      7610.2608      925771.55      922572.74      865457.65      65163.56       2551.0275      1139.4821      9063.8633      21095.786      30159.649      117708.92      39.142423      39.142423      76.827013          16004 
   3946000   4323.0352      897411.92      7618.3124      921169.59      920297.91      850768.24      66953.857      6422.9367      8754.4648      8942.4148      21099.574      30041.989      117918.07      39.165593      39.165593      76.872491          16004 
   3947000   4368.9891      906304.7       7626.3651      925508.97      929436.11      863969.01      66083.706      502.47465      1412.7778      9037.4728      21157.001      30194.474      117643.21      39.135138      39.135138      76.812715          16004 
   3948000   4361.651       896875.55      7634.4167      920144.46      917280.81      853201.37      65063.058      1964.044      -833.36628      9022.2937      21032.542      30054.835      117890.25      39.162513      39.162513      76.866445          16004 
   3949000   4333.3907      901080.08      7642.4689      919705.05      921593.72      861941.47      64379.193      4001.185       1109.8172      8963.8358      21131.458      30095.294      117816.51      39.154345      39.154345      76.850414          16004 
   3950000   4391.713       900060.91      7650.5201      921552.72      917521.21      861108.8       70033.552     -3377.6363     -996.67996      9084.4784      20991.362      30075.841      117849.02      39.157947      39.157947      76.857482          16004 
   3951000   4370.5246      903274.8       7658.569       921940.26      927281.28      860602.85      67781.67       1004.9915     -6513.6662      9040.6491      21086.447      30127.096      117758.2       39.147885      39.147885      76.837733          16004 
   3952000   4380.2827      902379.37      7666.6266      923436.11      923282.42      860419.57      63406.022      681.1923      -3368.6528      9060.8342      21084.589      30145.424      117725.82      39.144296      39.144296      76.83069           16004 
   3953000   4362.0721      901059.28      7674.6792      923352.91      921208.82      858616.11      68828.941     -1431.5377      665.71166      9023.1647      21096.651      30119.815      117770.47      39.149245      39.149245      76.840403          16004 
   3954000   4346.2449      900233.17      7682.7455      920363.05      917842.72      862493.73      68649.03      -3976.812       2911.1884      8990.4252      21110.664      30101.089      117803.72      39.152928      39.152928      76.847633          16004 
   3955000   4354.0079      897993.14      7690.802       916170.81      920338.19      857470.41      65845.14      -3397.3939     -726.17428      9006.4836      21058.003      30064.487      117868.15      39.160065      39.160065      76.86164           16004 
   3956000   4391.843       898837.61      7698.8579      917385.57      918097.62      861029.65      64550.478      2863.8303     -8553.1374      9084.7472      21005.756      30090.503      117820.95      39.154838      39.154838      76.851381          16004 
   3957000   4344.9803      899371.87      7706.9134      922513.88      920566.26      855035.46      63861.598     -1818.6807     -4243.7865      8987.8095      21085.484      30073.293      117850.97      39.158163      39.158163      76.857907          16004 
   3958000   4357.7437      903612.41      7714.9644      926620.31      927568.91      856648.03      66129.571      1764.6773      1368.5632      9014.2111      21111.055      30125.266      117757.63      39.147822      39.147822      76.837611          16004 
   3959000   4376.8542      897756.38      7723.0176      918265.92      915204.43      859798.78      64978.113      720.31414      813.60705      9053.7422      20996.776      30050.518      117887.77      39.162238      39.162238      76.865905          16004 
   3960000   4371.2144      896123.23      7731.0712      917223.95      916455.71      854690.03      67618.611     -3937.4724     -7969.1833      9042.0761      21042.847      30084.923      117826.63      39.155467      39.155467      76.852615          16004 
   3961000   4367.5044      904489.94      7739.1273      924703.67      926457.83      862308.31      67404.785      2850.9796     -7420.7739      9034.4017      21127.406      30161.807      117688.9       39.140205      39.140205      76.822659          16004 
   3962000   4353.8826      895834.01      7747.1802      919448.4       917518.81      850534.82      67728.125      5228.3973      587.64777      9006.2243      20985.586      29991.81       117990.15      39.173572      39.173572      76.888151          16004 
   3963000   4387.5784      905037.48      7755.2339      931733.75      922442.72      860935.96      68585.421      801.38312      3747.9684      9075.9258      21091.064      30166.99       117675.81      39.138753      39.138753      76.81981           16004 
   3964000   4382.3515      896316.4       7763.2852      919311.31      916830.3       852807.59      69474.931     -7757.8287     -736.90266      9065.1137      20974.04       30039.154      117897.92      39.163361      39.163361      76.868111          16004 
   3965000   4373.5157      905623.08      7771.3313      928499.8       928025.25      860344.19      64086.364      2928.2303     -1130.2853      9046.8363      21106.254      30153.091      117693.3       39.140691      39.140691      76.823615          16004 
   3966000   4398.7584      899355.72      7779.3923      921114.09      921634.8       855318.27      65646.201      8118.9694     -2845.6701      9099.0522      20997.595      30096.647      117793.56      39.151803      39.151803      76.845424          16004 
   3967000   4347.217       896008.59      7787.4457      914746.27      919985.61      853293.89      69242.214      4137.4732     -6645.5596      8992.4361      21051.143      30043.579      117886.9       39.162141      39.162141      76.865716          16004 
   3968000   4384.7421      909554.35      7795.4944      933624.3       931515.46      863523.3       68704.124     -1073.034      -4473.9458      9070.0587      21158.785      30228.844      117556.14      39.125481      39.125481      76.793761          16004 
   3969000   4387.1363      894901.26      7803.5429      917475.3       916846.55      850381.92      66244.037     -982.95668     -3571.064       9075.0111      20978.808      30053.819      117867.55      39.159999      39.159999      76.86151           16004 
   3970000   4397.5667      907780.28      7811.6019      933748.12      928307.8       861284.91      67714.351     -3954.7094     -3897.6345      9096.5869      21141.67       30238.256      117537.63      39.123427      39.123427      76.789729          16004 
   3971000   4386.6755      894917.47      7819.6507      918842.14      918033.04      847877.23      66343.717      10.045427      1316.8787      9074.0579      20944.135      30018.193      117928.67      39.166766      39.166766      76.874793          16004 
   3972000   4432.7361      909907.84      7827.6998      931667.13      931413.74      866642.64      65707.955      3734.3237      5736.1202      9169.3368      21041.613      30210.949      117585.53      39.128742      39.128742      76.80016           16004 
   3973000   4393.8129      896247.77      7835.7508      922320.73      919417.91      847004.66      68746.838      1695.6545     -1447.0282      9088.8222      20960.813      30049.635      117872.06      39.160498      39.160498      76.86249           16004 
   3974000   4386.3988      904024.87      7843.8074      925903.27      925933.18      860238.16      73772.903     -1603.3866     -4348.9066      9073.4857      21083.116      30156.602      117680.75      39.139301      39.139301      76.820886          16004 
   3975000   4430.5839      895186.95      7851.8511      916934.09      915980.92      852645.83      65932.92      -2488.3839      9685.1296      9164.8847      20916.875      30081.76       117812.19      39.153867      39.153867      76.849476          16004 
   3976000   4436.433       907559.82      7859.9077      926993.92      928564.16      867121.39      64257.747      2842.0396      4125.6974      9176.9838      21036.909      30213.893      117577.36      39.127835      39.127835      76.798381          16004 
   3977000   4390.3434      895889.96      7867.9559      920870.94      920661.54      846137.39      62972.832     -4948.5177     -4760.9837      9081.6453      20972.967      30054.612      117860.29      39.159195      39.159195      76.859933          16004 
   3978000   4401.7287      900759.24      7876.008       923932.99      922408.84      855935.9       68855.386     -1008.3766     -5694.9347      9105.1963      20992.847      30098.043      117781.45      39.150461      39.150461      76.84279           16004 
   3979000   4402.1711      899761.34      7884.0578      917936.94      921407.98      859939.11      67596.247     -694.4388       1921.0343      9106.1114      21011.163      30117.275      117745.44      39.146471      39.146471      76.834959          16004 
   3980000   4366.8183      900611.64      7892.1101      923030.28      922381.38      856423.25      58712.589     -2398.5166     -1219.6269      9032.9825      21059.876      30092.859      117788.33      39.151224      39.151224      76.844287          16004 
   3981000   4356.4959      896541.54      7900.1663      917622.59      918773.13      853228.92      67562.103     -1084.0614     -4293.6829      9011.6301      21035.345      30046.975      117869.83      39.160251      39.160251      76.862006          16004 
   3982000   4393.9629      908718.76      7908.2159      931675.26      929590.55      864890.49      66715.64       7622.8664     -1411.0887      9089.1324      21127.524      30216.656      117567.16      39.126703      39.126703      76.79616           16004 
   3983000   4326.8854      897893.51      7916.2575      918931.41      919131.12      855618         67032.672     -547.77998      234.50228      8950.3793      21079.17       30029.549      117899.06      39.163488      39.163488      76.868359          16004 
   3984000   4430.3265      898592.26      7924.3076      919580.38      920092.89      856103.53      66616.006     -4297.7094     -3899.9911      9164.3524      20950.876      30115.228      117745.43      39.146469      39.146469      76.834956          16004 
   3985000   4393.0242      896201.14      7932.3656      917839.91      917266.35      853497.17      69531.968     -1728.2423      3708.2358      9087.1906      20998.229      30085.419      117797.71      39.152263      39.152263      76.846327          16004 
   3986000   4372.5348      900100.15      7940.411       921662.34      922184.92      856453.2       65402.902     -1843.7589     -3702.2357      9044.8072      21060.366      30105.174      117761.85      39.14829       39.14829       76.838528          16004 
   3987000   4400.2927      902692.87      7948.4556      925570.58      921955.38      860552.64      67037.879     -1477.9478     -4314.129       9102.2259      21009.22       30111.446      117748.53      39.146814      39.146814      76.835632          16004 
   3988000   4383.2631      904414.78      7956.5047      926882.98      925239.03      861122.34      66519.914     -2352.2287      6767.6642      9066.9993      21083.796      30150.796      117677.9       39.138985      39.138985      76.820265          16004 
   3989000   4380.5353      898720.38      7964.547       919968.46      921446.63      854746.04      65834.761      2955.0949     -3715.1136      9061.3567      21018.962      30080.319      117801.8       39.152716      39.152716      76.847217          16004 
   3990000   4409.7498      899488.47      7972.5995      919736.5       921824.74      856904.16      65734.314     -3477.2628     -778.84677      9121.7884      20979.779      30101.567      117762.03      39.14831       39.14831       76.838568          16004 
   3991000   4418.5131      897623.46      7980.6555      918684.56      920893.34      853292.49      66287.87      -1071.386       1912.949       9139.9156      20935.386      30075.301      117807.36      39.153332      39.153332      76.848426          16004 
   3992000   4402.9606      904241.3       7988.6997      924192.92      929268.8       859262.16      66934.478      2992.6849     -2304.3417      9107.7445      21061.078      30168.822      117641.04      39.134898      39.134898      76.812243          16004 
   3993000   4344.1721      892455.04      7996.7574      913532.98      909680.2       854151.92      64439.928     -3479.8596     -4341.25        8986.1376      20969.73       29955.868      118020.65      39.176946      39.176946      76.894774          16004 
   3994000   4365.1964      908831.17      8004.8155      932243.57      928023.31      866226.64      68146.333     -1940.2331      2433.3849      9029.6274      21179.416      30209.043      117569.01      39.126909      39.126909      76.796563          16004 
   3995000   4342.9726      893530.22      8012.865       915926.63      914335.32      850328.72      67138.089      5070.4314      612.44379      8983.6565      21007.491      29991.147      117954.67      39.169645      39.169645      76.880444          16004 
   3996000   4381.1761      897128.63      8020.918       922733.19      915008.81      853643.9       67589.697     -2157.8642     -3837.0566      9062.6823      21009.935      30072.618      117808.26      39.153432      39.153432      76.848621          16004 
   3997000   4374.3867      898209.18      8028.968       919841.7       917982.22      856803.61      66925.115      3055.0316     -2612.1811      9048.6381      21050.796      30099.434      117758.25      39.147891      39.147891      76.837746          16004 
   3998000   4354.5681      898178.94      8037.0171      916571.03      919132.82      858832.97      68286.3        523.07403      3566.1864      9007.6423      21047.242      30054.884      117836.43      39.156553      39.156553      76.854746          16004 
   3999000   4429.2565      904925.94      8045.0653      924733.31      928966.3       861078.19      70703.644      2430.6096     -1087.7569      9162.1389      20974.288      30136.427      117690.07      39.140334      39.140334      76.822913          16004 
   4000000   4402.1295      898392.38      8053.1386      920904.4       921435.08      852837.67      67847.165      2752.4761     -7078.6613      9106.0253      20971.194      30077.219      117792.67      39.151704      39.151704      76.84523           16004 
Loop time of 8053.14 on 8 procs for 1000000 steps with 16004 atoms

Performance: 5.364 ns/day, 4.474 hours/ns, 124.175 timesteps/s
64.5% CPU use with 1 MPI tasks x 8 OpenMP threads

MPI task timing breakdown:
Section |  min time  |  avg time  |  max time  |%varavg| %total
---------------------------------------------------------------
Pair    | 7538.5     | 7538.5     | 7538.5     |   0.0 | 93.61
Neigh   | 18.502     | 18.502     | 18.502     |   0.0 |  0.23
Comm    | 118.95     | 118.95     | 118.95     |   0.0 |  1.48
Output  | 3.6578     | 3.6578     | 3.6578     |   0.0 |  0.05
Modify  | 330.95     | 330.95     | 330.95     |   0.0 |  4.11
Other   |            | 42.58      |            |       |  0.53

Nlocal:          16004 ave       16004 max       16004 min
Histogram: 1 0 0 0 0 0 0 0 0 0
Nghost:          15719 ave       15719 max       15719 min
Histogram: 1 0 0 0 0 0 0 0 0 0
Neighs:              0 ave           0 max           0 min
Histogram: 1 0 0 0 0 0 0 0 0 0
FullNghs:  1.94668e+06 ave 1.94668e+06 max 1.94668e+06 min
Histogram: 1 0 0 0 0 0 0 0 0 0

Total # of neighbors = 1946682
Ave neighs/atom = 121.63722
Neighbor list builds = 33982
Dangerous builds = 0
Total wall time: 8:46:57
