
atom_style atomic
units metal
boundary p p p
#atom_modify sort 0 0.0
newton on

read_data data.lammps
Reading data file ...
  orthogonal box = (0 0 0) to (43.790145 43.790145 87.58029)
  1 by 1 by 1 MPI processor grid
  reading atoms ...
  16004 atoms
  read_data CPU = 0.041 seconds
# replicate 10 10 20

### interactions

pair_style flare
pair_coeff * * lmp.flare
Reading potential file lmp.flare with DATE: Thu

# compute unc all flare/std/atom L_inv_lmp.flare sparse_desc_lmp.flare
# compute MaxUnc all reduce max c_unc

mass 1 12.011000
mass 2 28.085000

thermo_style custom step temp press cpu pxx pyy pzz pxy pxz pyz ke pe etotal vol lx ly lz atoms    #c_MaxUnc
thermo 1000
timestep 0.0005
restart 100000 restart_*.dat

#################### Equilibrate at P and T_es ##############################
velocity all create $T 41928459 rot yes dist gaussian
velocity all create 2800 41928459 rot yes dist gaussian
fix mom all momentum 1000 linear 1 1 1 angular

fix 1 all npt temp $T $T $(100.0*dt) iso $P $P $(1000.0*dt)
fix 1 all npt temp 2800 $T $(100.0*dt) iso $P $P $(1000.0*dt)
fix 1 all npt temp 2800 2800 $(100.0*dt) iso $P $P $(1000.0*dt)
fix 1 all npt temp 2800 2800 0.050000000000000002776 iso $P $P $(1000.0*dt)
fix 1 all npt temp 2800 2800 0.050000000000000002776 iso 300000 $P $(1000.0*dt)
fix 1 all npt temp 2800 2800 0.050000000000000002776 iso 300000 300000 $(1000.0*dt)
fix 1 all npt temp 2800 2800 0.050000000000000002776 iso 300000 300000 0.5
dump 1 all custom 1000 1equil.bin id type x y z vx vy vz
run   10000 # report performance
Neighbor list info ...
  update every 1 steps, delay 10 steps, check yes
  max neighbors/atom: 2000, page size: 100000
  master list distance cutoff = 6
  ghost atom cutoff = 6
  binsize = 6, bins = 8 8 15
  1 neighbor lists, perpetual/occasional/extra = 1 0 0
  (1) pair flare/kk, perpetual
      attributes: full, newton on, kokkos_device
      pair build: full/bin/kk/device
      stencil: full/bin/3d
      bin: kk/device
Per MPI rank memory allocation (min/avg/max) = 15.9 | 15.9 | 15.9 Mbytes
   Step          Temp          Press           CPU            Pxx            Pyy            Pzz            Pxy            Pxz            Pyz           KinEng         PotEng         TotEng         Volume           Lx             Ly             Lz          Atoms   
         0   2800           57033.054      0              56698.886      57032.726      57367.549     -735.25824     -16.376755     -430.27097      5791.9403     -4000.2205      1791.7198      167941.93      43.790145      43.790145      87.58029           16004 
      1000   2787.899       299405.43      6.4022628      299508.45      299295.96      299411.87     -3023.8546      2609.7821      1346.6617      5766.9088      3277.6204      9044.5292      155072.79      42.641767      42.641767      85.283535          16004 
      2000   2823.4583      299635.06      12.788931      299856.57      299066.95      299981.65      2556.5961      957.91928      178.53498      5840.465       2982.502       8822.967       155010.97      42.6361        42.6361        85.272201          16004 
      3000   2812.8437      300130.24      19.180126      299467.91      301005.44      299917.37      372.78243     -1014.0127      2372.428       5818.508       3090.2412      8908.7493      154923.53      42.628082      42.628082      85.256164          16004 
      4000   2794.179       300050.01      25.571273      299019.27      299591.3       301539.45     -3450.5918     -1274.4235      278.52982      5779.8992      3079.8452      8859.7444      154991.3       42.634297      42.634297      85.268595          16004 
      5000   2796.5481      301225.51      31.959368      303383.95      300942.88      299349.71     -2129.5943     -880.85834     -3108.3295      5784.7998      3093.0852      8877.885       154915.31      42.627328      42.627328      85.254657          16004 
      6000   2812.7432      300468.85      38.347655      300526.47      300619.94      300260.16     -670.09771      273.7316      -224.2182       5818.3002      3093.0801      8911.3803      154970.2       42.632362      42.632362      85.264725          16004 
      7000   2801.262       300335.92      44.742234      301145.3       299977.94      299884.52      225.22829     -132.27197     -2318.9528      5794.5509      3058.8033      8853.3542      154937.56      42.629369      42.629369      85.258739          16004 
      8000   2802.8503      301403.5       51.13854       300920         301857.34      301433.17      1606.8407      62.628233     -898.05362      5797.8362      3158.0357      8955.8719      154896.79      42.62563       42.62563       85.25126           16004 
      9000   2776.0956      298823.66      57.540414      299542.67      299765.21      297163.11     -293.62739     -1701.4171      454.47419      5742.4928      3076.5848      8819.0776      154955.84      42.631046      42.631046      85.262091          16004 
     10000   2820.9303      296985.12      63.939712      297858.63      296392.92      296703.82      1547.5504     -817.58286      1306.9433      5835.2357      3083.9925      8919.2282      155207.41      42.654103      42.654103      85.308206          16004 
Loop time of 63.9397 on 8 procs for 10000 steps with 16004 atoms

Performance: 6.756 ns/day, 3.552 hours/ns, 156.397 timesteps/s
61.7% CPU use with 1 MPI tasks x 8 OpenMP threads

MPI task timing breakdown:
Section |  min time  |  avg time  |  max time  |%varavg| %total
---------------------------------------------------------------
Pair    | 60.954     | 60.954     | 60.954     |   0.0 | 95.33
Neigh   | 0.069782   | 0.069782   | 0.069782   |   0.0 |  0.11
Comm    | 0.33561    | 0.33561    | 0.33561    |   0.0 |  0.52
Output  | 0.014655   | 0.014655   | 0.014655   |   0.0 |  0.02
Modify  | 2.2951     | 2.2951     | 2.2951     |   0.0 |  3.59
Other   |            | 0.2703     |            |       |  0.42

Nlocal:          16004 ave       16004 max       16004 min
Histogram: 1 0 0 0 0 0 0 0 0 0
Nghost:          13610 ave       13610 max       13610 min
Histogram: 1 0 0 0 0 0 0 0 0 0
Neighs:              0 ave           0 max           0 min
Histogram: 1 0 0 0 0 0 0 0 0 0
FullNghs:  1.47511e+06 ave 1.47511e+06 max 1.47511e+06 min
Histogram: 1 0 0 0 0 0 0 0 0 0

Total # of neighbors = 1475110
Ave neighs/atom = 92.171332
Neighbor list builds = 217
Dangerous builds = 0
run  990000
Per MPI rank memory allocation (min/avg/max) = 16.09 | 16.09 | 16.09 Mbytes
   Step          Temp          Press           CPU            Pxx            Pyy            Pzz            Pxy            Pxz            Pyz           KinEng         PotEng         TotEng         Volume           Lx             Ly             Lz          Atoms   
     10000   2820.9303      296985.12      0              297858.63      296392.92      296703.82      1547.5504     -817.58286      1306.9433      5835.2357      3083.9925      8919.2282      155207.41      42.654103      42.654103      85.308206          16004 
     11000   2798.1176      305544.89      6.3960142      305497.96      304867.82      306268.9      -396.86716     -2123.0166      1092.1834      5788.0464      3088.7863      8876.8328      154657.08      42.60363       42.60363       85.20726           16004 
     12000   2842.5496      298413.88      12.791248      298711.49      297458.35      299071.81     -595.58882     -219.53771     -822.50789      5879.9563      3075.6432      8955.5995      155027.61      42.637626      42.637626      85.275252          16004 
     13000   2809.2736      296603.48      19.188063      296270.45      295848.84      297691.15     -2449.584      -127.60737     -781.74188      5811.1232      2986.3963      8797.5196      155070.29      42.641538      42.641538      85.283077          16004 
     14000   2837.1918      302360.9       25.58565       301552.94      302842.32      302687.43      1868.0796      2477.3086     -1603.8974      5868.8733      3099.713       8968.5863      154845.03      42.620881      42.620881      85.241762          16004 
     15000   2782.2187      297890.09      31.983302      298683.89      297629.37      297357         1881.6216      956.78014     -1518.942       5755.1588      3090.0117      8845.1705      155048.54      42.639545      42.639545      85.27909           16004 
     16000   2812.7612      300316.35      38.382318      299816.78      300372.4       300759.88     -437.83179      1860.1659     -1862.7747      5818.3375      3074.284       8892.6216      154944.96      42.630048      42.630048      85.260095          16004 
     17000   2797.9957      302873.48      44.780044      304031.04      303729.08      300860.33     -319.68004      1773.7169     -2942.9727      5787.7942      3186.3508      8974.1451      154844.95      42.620874      42.620874      85.241748          16004 
     18000   2791.9958      299618.78      51.176309      298621.16      301453.21      298781.97      1663.2283      2686.4313      1732.8462      5775.3831      3109.068       8884.4511      154943.38      42.629903      42.629903      85.259806          16004 
     19000   2781.9958      294407.98      57.573063      294061.52      295921.03      293241.4      -1560.4069     -729.98781     -62.718134      5754.6978      3134.4679      8889.1657      155267.08      42.659569      42.659569      85.319137          16004 
     20000   2801.4123      304628.58      63.972163      303301.6       305193.78      305390.37     -1754.8173      1063.6307      723.58452      5794.8616      3141.9635      8936.8251      154716.77      42.60911       42.60911       85.21822           16004 
     21000   2786.4324      300735.15      70.371829      300469.06      299902.17      301834.23      660.58135     -921.0515       1193.3416      5763.875       3103.5949      8867.4699      154842.35      42.620635      42.620635      85.241271          16004 
     22000   2811.8491      297136.04      76.770485      296850.93      297223.97      297333.24     -2546.271       401.72724      2018.824       5816.4507      3133.7391      8950.1898      155104.49      42.644674      42.644674      85.289347          16004 
     23000   2779.2735      301963.81      83.170567      300591.94      302464.57      302834.92      444.46394     -2307.0924      292.72013      5749.0665      3150.817       8899.8835      154800.29      42.616776      42.616776      85.233551          16004 
     24000   2790.2772      299892.33      89.566553      298909.35      300036.5       300731.12     -516.71153     -994.40079     -510.76442      5771.8281      3116.9863      8888.8144      154907.93      42.626652      42.626652      85.253303          16004 
     25000   2793.2725      299968.41      95.961522      299873.91      299230.77      300800.53      1376.7715     -2191.6617      1605.0698      5778.0242      3116.9695      8894.9937      154994.19      42.634563      42.634563      85.269125          16004 
     26000   2794.9661      300366.57      102.35464      299772.27      299775.8       301551.63     -832.83398     -779.84698     -335.89586      5781.5275      3088.3487      8869.8761      154954.76      42.630947      42.630947      85.261893          16004 
     27000   2797.9046      301354.89      108.75032      300722.42      301470.84      301871.4      -2469.1384     -348.04618     -2514.0258      5787.6058      3122.8839      8910.4897      154866.13      42.622817      42.622817      85.245634          16004 
     28000   2778.1456      305521.01      115.14856      304628.03      306163.97      305771.03     -341.44007      2254.2079      1153.5393      5746.7334      3227.201       8973.9344      154629.21      42.601071      42.601071      85.202141          16004 
     29000   2770.2989      297473.02      121.54724      297678.31      297456.09      297284.66      960.44719     -152.6748      -1107.4815      5730.5021      3148.8103      8879.3124      155087.64      42.643129      42.643129      85.286257          16004 
     30000   2803.2179      299270.77      127.9474       299126.05      299182.5       299503.75     -1195.7364     -735.07137     -1720.1364      5798.5967      3032.0903      8830.687       154900.65      42.625984      42.625984      85.251968          16004 
     31000   2801.9114      300101.59      134.34372      299374.25      301099.04      299831.49      2735.1822     -1221.248      -1939.6946      5795.8941      3126.863       8922.7571      154966.27      42.632002      42.632002      85.264003          16004 
     32000   2764.126       300565         140.7294       301863.31      299878.73      299952.97     -1069.3119     -2006.9296      2023.7783      5717.7332      3094.4115      8812.1446      154871.73      42.623331      42.623331      85.246662          16004 
     33000   2798.1216      298950.68      147.11998      299612.74      298118.53      299120.78      386.00838     -2300.3844     -655.60419      5788.0548      3125.0613      8913.1161      154978.6       42.633132      42.633132      85.266265          16004 
     34000   2779.0965      299201.53      153.51382      298894.85      299083.98      299625.76     -401.5534       2402.3755     -440.08698      5748.7004      3062.672       8811.3724      154919.01      42.627667      42.627667      85.255335          16004 
     35000   2821.3638      304007.51      159.90742      303607.96      302476.31      305938.24     -1713.6197      2493.2756     -623.7759       5836.1323      3159.7225      8995.8548      154738         42.611059      42.611059      85.222118          16004 
     36000   2775.7272      299672.88      166.30303      299324.31      300834.09      298860.25     -1354.7524      1163.4996     -522.55698      5741.7308      3098.7167      8840.4475      154894.02      42.625375      42.625375      85.250751          16004 
     37000   2816.0956      296396.67      172.69976      295781.61      295977.37      297431.03      277.94327     -776.55525      1148.2459      5825.2348      3050.6755      8875.9103      155090.04      42.643349      42.643349      85.286697          16004 
     38000   2784.043       301632.38      179.09033      302044.05      301144.94      301708.16     -2104.9926      4441.6666     -568.60744      5758.9323      3110.5815      8869.5139      154800.7       42.616814      42.616814      85.233628          16004 
     39000   2833.27        298977.71      185.48271      298251.73      299175.77      299505.63      1627.6699     -2687.2611     -1079.8289      5860.761       3091.9458      8952.7067      154931.37      42.628801      42.628801      85.257602          16004 
     40000   2781.4266      299855.34      191.87618      300226.27      299221.96      300117.78     -2132.3989     -1277.4627     -1346.3962      5753.5203      3033.7201      8787.2404      154890.03      42.625009      42.625009      85.250019          16004 
     41000   2813.7909      301039.79      198.27029      300792.68      302281.43      300045.26      220.51555     -535.28034     -1271.8586      5820.4675      3127.0846      8947.552       154858.65      42.622131      42.622131      85.244261          16004 
     42000   2793.8957      301466.87      204.66608      302315.69      302038.12      300046.8       1885.0109     -1503.357      -2070.233       5779.3133      3054.6408      8833.9542      154814.09      42.618043      42.618043      85.236085          16004 
     43000   2819.7637      292654.08      211.06087      291237.42      292797.35      293927.48      1927.9684     -2693.6789      1617.145       5832.8226      3032.1914      8865.014       155303.56      42.66291       42.66291       85.325819          16004 
     44000   2757.2251      302510.59      217.45374      302488.32      303120.07      301923.36      904.08025     -404.37884     -986.36519      5703.4583      3077.672       8781.1304      154689.6       42.606615      42.606615      85.213231          16004 
     45000   2815.5982      300044.33      223.84678      303165.29      298089.07      298878.63     -3673.6582     -602.28253     -1339.5004      5824.2059      3093.1331      8917.339       154902.47      42.626151      42.626151      85.252302          16004 
     46000   2794.3113      297227.49      230.24115      298780.92      296632.77      296268.78      205.02846     -1561.7762     -2336.9022      5780.1728      3099.2093      8879.3822      155045.67      42.639282      42.639282      85.278564          16004 
     47000   2793.0612      300183.17      236.63667      300661.73      300213.15      299674.63      716.93638      3218.4567      1674.6696      5777.587       3078.1107      8855.6977      154861.15      42.62236       42.62236       85.24472           16004 
     48000   2804.776       300080.27      243.03125      299817.77      299189.72      301233.34     -2267.7047     -1489.5281      1890.8686      5801.8197      3151.3652      8953.1849      154906.36      42.626507      42.626507      85.253015          16004 
     49000   2780.1181      298018.76      249.42458      298115.57      298651.65      297289.05     -2003.2958      2109.897      -1674.6471      5750.8136      3080.8309      8831.6445      155071.82      42.641679      42.641679      85.283359          16004 
     50000   2800.505       297185.53      255.81831      296477.71      297940.14      297138.73     -966.68387     -173.06804      2972.569       5792.9849      3067.9479      8860.9328      155099.08      42.644178      42.644178      85.288356          16004 
     51000   2789.2373      305311.38      262.21066      305876.26      304843.99      305213.9      -461.70247     -333.16136     -394.26653      5769.6772      3168.4519      8938.1291      154650.33      42.60301       42.60301       85.206021          16004 
     52000   2814.7542      299241.68      268.60192      299223.47      299283.46      299218.11      2577.6018     -1560.4654     -1450.3619      5822.46        3089.924       8912.384       155053.63      42.640012      42.640012      85.280024          16004 
     53000   2776.2427      298052.18      274.99401      298853.01      298131.74      297171.78     -1759.2602      1378.8697     -32.770335      5742.7971      3074.095       8816.892       155032.71      42.638094      42.638094      85.276188          16004 
     54000   2810.5273      301077.4       281.38949      302825.44      300011.23      300395.54      587.12239      1558.8229      1288.5123      5813.7166      3105.7323      8919.4488      154828.83      42.619395      42.619395      85.23879           16004 
     55000   2764.6421      302089.29      287.78356      301970.23      302025.85      302271.79      1040.3716     -636.82856     -1118.8428      5718.8007      3150.4207      8869.2214      154810.41      42.617705      42.617705      85.23541           16004 
     56000   2818.1489      297103.65      294.17785      296057.9       298273.93      296979.11      323.59628     -37.124684     -3307.0104      5829.4822      3100.7739      8930.256       155176.83      42.651302      42.651302      85.302605          16004 
     57000   2802.5167      301549.98      300.57214      299900.61      302741.65      302007.67     -253.04723      1421.6176      2378.6511      5797.1462      3112.1998      8909.3459      154760.72      42.613144      42.613144      85.226289          16004 
     58000   2808.1486      303607.67      306.9654       303049.67      304580.92      303192.42      1152.4452      393.31405     -2470.4594      5808.796       3165.0533      8973.8493      154748.74      42.612045      42.612045      85.22409           16004 
     59000   2795.0401      298994.86      313.35537      298111.25      300389.3       298484.04      3109.6916     -842.2227      -117.4171       5781.6805      3078.2416      8859.9221      155023.3       42.637231      42.637231      85.274461          16004 
     60000   2785.2789      299828.74      319.7463       300029.3       300932.45      298524.45     -2649.5978     -257.42565     -2269.0477      5761.4889      3069.2152      8830.7041      154855.62      42.621853      42.621853      85.243706          16004 
     61000   2813.231       300768.41      326.14184      300299.97      301922.53      300082.73     -1506.4615     -1298.0877     -2427.9945      5819.3094      3118.1728      8937.4822      154881.69      42.624244      42.624244      85.248489          16004 
     62000   2765.4476      297502.41      332.53515      297720.93      297434.63      297351.69     -40.321824     -1522.6249      671.02795      5720.4669      3114.0113      8834.4782      155066.68      42.641207      42.641207      85.282415          16004 
     63000   2798.5624      300448.04      338.92979      301624.03      298989.83      300730.27      1358.0121     -1125.7097     -1477.34        5788.9665      3138.3977      8927.3642      154841.56      42.620562      42.620562      85.241125          16004 
     64000   2796.3168      303284.76      345.32484      305152.3       302296.02      302405.95     -1780.87        1290.348       1021.6383      5784.3214      3065.2231      8849.5445      154669.94      42.604811      42.604811      85.209622          16004 
     65000   2787.6179      296360.98      351.71665      296815.89      296289.91      295977.14      1273.6251     -1538.3831     -3341.8677      5766.3274      3102.4284      8868.7558      155082.14      42.642625      42.642625      85.285249          16004 
     66000   2808.6562      299902.56      358.10841      300135.12      299159.73      300412.82      1460.5699     -1123.1691      1747.4754      5809.846       3180.4599      8990.3059      154954.8       42.630951      42.630951      85.261901          16004 
     67000   2792.3321      301729.88      364.50203      301965.7       301219.39      302004.57      1430.861      -660.57734      2915.6553      5776.0789      3082.4422      8858.5211      154795.72      42.616357      42.616357      85.232714          16004 
     68000   2796.2419      297957.78      370.89565      297169.51      297395.5       299308.34      1347.7287      1583.4819     -694.45394      5784.1664      3150.0057      8934.1721      155007.81      42.635811      42.635811      85.271623          16004 
     69000   2788.4083      297499.48      377.29016      297239.83      297046.67      298211.93     -14.697276      2099.977      -898.7377       5767.9623      3057.2214      8825.1837      155000.33      42.635125      42.635125      85.270251          16004 
     70000   2787.9815      306007.03      383.68498      306624.67      305334.7       306061.72      297.78276      790.27286     -1192.6578      5767.0794      3210.0439      8977.1234      154592.2       42.597672      42.597672      85.195344          16004 
     71000   2811.7097      298104.66      390.07875      297219.52      298744.84      298349.62     -3957.1422     -2669.0536      675.7837       5816.1624      3103.4875      8919.65        155012.67      42.636256      42.636256      85.272513          16004 
     72000   2790.4216      298397.7       396.46924      299345.57      297713.9       298133.64      17.139044      1393.056       1625.5248      5772.1268      3081.6665      8853.7933      154919.2       42.627685      42.627685      85.255371          16004 
     73000   2789.7204      300980.96      402.85892      299798.8       300151.11      302992.97     -152.29742     -2572.3127     -804.53226      5770.6765      3139.6589      8910.3354      154872.2       42.623374      42.623374      85.246748          16004 
     74000   2803.6259      300078.21      409.25191      299205.57      301066.43      299962.64     -686.85849     -113.52865     -726.38299      5799.4406      3128.2129      8927.6534      154884.28      42.624482      42.624482      85.248964          16004 
     75000   2806.3158      297539.23      415.64596      297429.1       296913.4       298275.18     -1443.0912      318.43672     -49.513055      5805.0047      3119.8599      8924.8647      155026.18      42.637495      42.637495      85.27499           16004 
     76000   2828.1897      300369.43      422.03815      301407         299382.71      300318.58      3693.8739     -1218.2161      120.42052      5850.2522      3069.4266      8919.6788      154927.53      42.628449      42.628449      85.256898          16004 
     77000   2807.7035      306326.91      428.4349       306717.85      305939.4       306323.48      1986.042      -890.54462     -1761.1439      5807.8754      3157.2864      8965.1618      154611.14      42.599411      42.599411      85.198822          16004 
     78000   2790.4531      296760.88      434.82849      298002.75      296510.43      295769.47      1666.7338      419.74778      152.97384      5772.1921      3046.0879      8818.28        155056.07      42.640236      42.640236      85.280471          16004 
     79000   2813.265       299610.73      441.22722      300146.91      299338.43      299346.85      189.53877      1528.7641      1705.5205      5819.3795      3106.4657      8925.8452      154955.7       42.631033      42.631033      85.262065          16004 
     80000   2789.9345      301095.77      447.61889      300867.07      301397.69      301022.56     -338.09767     -306.92349      2146.8503      5771.1193      3106.8194      8877.9387      154817.29      42.618336      42.618336      85.236672          16004 
     81000   2818.7133      299300.6       454.01099      299022.87      299720.44      299158.5       1093.4147     -1880.5936      1201.3736      5830.6496      3090.7355      8921.3851      155015.11      42.63648       42.63648       85.27296           16004 
     82000   2776.9965      298074.62      460.4009       297665.97      297812.24      298745.66      239.95189     -1072.905      -1400.3665      5744.3565      3043.4056      8787.7621      154968.7       42.632225      42.632225      85.26445           16004 
     83000   2812.2225      302696.04      466.79481      303360.34      302249.59      302478.2       1431.8905     -2641.3499      956.62091      5817.223       3106.0446      8923.2676      154726.97      42.610047      42.610047      85.220093          16004 
     84000   2824.4074      297793.82      473.18641      298746.8       296337.44      298297.24     -239.01993      1969.526       16.109312      5842.4282      3110.9856      8953.4138      155125.7       42.646617      42.646617      85.293233          16004 
     85000   2804.2144      297443.52      479.5801       298063.27      296312.2       297955.11      1454.5784     -417.9478       1514.9752      5800.6579      3059.221       8859.8789      155073.7       42.641852      42.641852      85.283703          16004 
     86000   2801.7572      303510.53      485.97088      302726.57      304460.27      303344.76      65.063674      794.73649      2761.5681      5795.5752      3171.7264      8967.3016      154760.78      42.61315       42.61315       85.226301          16004 
     87000   2794.1679      299644.44      492.36245      299007.81      300719.15      299206.35     -1451.5415     -1076.3506     -2604.9046      5779.8763      3030.0102      8809.8865      154929.16      42.628599      42.628599      85.257198          16004 
     88000   2807.9018      299879.78      498.75407      298924.43      299507.05      301207.87      4214.4195      697.09493     -1062.1129      5808.2856      3110.2136      8918.4992      154958.13      42.631255      42.631255      85.262511          16004 
     89000   2832.7854      300671.73      505.14607      299408.38      302313.51      300293.3      -158.86709      980.73507     -2047.2167      5859.7586      3154.2287      9013.9872      154910.43      42.626881      42.626881      85.253761          16004 
     90000   2803.3103      295927.7       511.54018      294563.92      296622.59      296596.59      1505.4818      1255.7466      1270.5853      5798.7879      3029.7538      8828.5417      155124.68      42.646524      42.646524      85.293047          16004 
     91000   2768.723       303788.12      517.93338      304136.86      303059.93      304167.56      2149.9756     -991.70895     -995.13319      5727.2422      3135.8852      8863.1274      154642.42      42.602284      42.602284      85.204567          16004 
     92000   2820.8283      300834.89      524.32365      299724.79      300746.37      302033.5       119.67543     -725.05543      2660.9766      5835.0246      3122.5413      8957.5659      154893.62      42.625339      42.625339      85.250678          16004 
     93000   2793.9075      297759.35      530.71222      299114.52      296868.45      297295.08      1343.8943     -1576.1612     -2074.9809      5779.3376      3076.9378      8856.2754      155019.87      42.636916      42.636916      85.273833          16004 
     94000   2844.7593      301505.31      537.10061      300929.55      301954.25      301632.12      604.52992      850.85099      2454.8748      5884.5271      3099.7375      8984.2645      154826.03      42.619138      42.619138      85.238275          16004 
     95000   2787.8507      301243.23      543.49082      300915.58      300691.81      302122.32     -200.79655      716.35935      36.520601      5766.8088      3078.8318      8845.6406      154853.69      42.621676      42.621676      85.243351          16004 
     96000   2780.7349      297131.23      549.8812       297487.93      296381.63      297524.13     -611.0613      -429.71199     -2221.5012      5752.0895      3032.5592      8784.6487      154972.04      42.632531      42.632531      85.265063          16004 
     97000   2796.9003      302590.6       556.26922      302516.33      302565.86      302689.62      1182.1683     -1339.1095     -354.59601      5785.5284      3113.2134      8898.7418      154802.01      42.616934      42.616934      85.233868          16004 
     98000   2779.4266      303313.77      562.65838      304544.29      303795.71      301601.32     -124.7776      -1746.9198      344.6606       5749.3831      3177.5608      8926.9439      154757.75      42.612872      42.612872      85.225743          16004 
     99000   2794.0613      295906.4       569.04888      294620.12      297405.93      295693.14     -223.16377     -64.232186      618.11632      5779.6558      3002.848       8782.5039      155055.82      42.640212      42.640212      85.280424          16004 
    100000   2798.7828      301948.43      575.4439       301081.6       302146.37      302617.33     -723.56027      944.95241      2207.6418      5789.4224      3148.5632      8937.9856      154868.21      42.623008      42.623008      85.246016          16004 
    101000   2795.255       300614.58      581.83135      300879.63      300126.15      300837.95      1001.5342     -1554.3259     -2545.8995      5782.1251      3127.9635      8910.0886      154914.25      42.627231      42.627231      85.254463          16004 
    102000   2782.6393      298718.93      588.22036      300187.44      298148.69      297820.66      1659.3119     -1827.1004      1395.2729      5756.0288      3107.7096      8863.7384      154955.83      42.631045      42.631045      85.262089          16004 
    103000   2798.8589      299446.71      594.60905      299244.98      300510.86      298584.28     -1285.9364     -595.27199      2464.0788      5789.5799      3120.2642      8909.8441      154969.29      42.632279      42.632279      85.264558          16004 
    104000   2801.9853      303628.55      600.99628      304068.62      303865.63      302951.39      1758.7         359.46185     -859.70792      5796.0469      3134.2632      8930.3101      154723.29      42.609708      42.609708      85.219417          16004 
    105000   2812.0434      298752.6       607.38653      299451.41      298241.62      298564.76      532.57566     -503.51255      930.71273      5816.8526      3053.093       8869.9456      155001.6       42.635241      42.635241      85.270483          16004 
    106000   2777.8012      298057.27      613.77247      298259.01      298443.76      297469.05      1284.2654      1295.1103      657.19817      5746.021       3068.1346      8814.1556      155057.72      42.640386      42.640386      85.280773          16004 
    107000   2818.7126      302171.46      620.16045      300674.42      302229.59      303610.38      931.42695     -1308.8726     -407.36819      5830.6483      3136.0315      8966.6798      154807.23      42.617413      42.617413      85.234825          16004 
    108000   2788.5631      299748.9       626.55013      299145.89      299442.9       300657.92      391.8012       330.17448     -1304.6507      5768.2826      3053.2424      8821.525       154871.16      42.623278      42.623278      85.246556          16004 
    109000   2787.2744      298586.61      632.93788      298324.04      299008.15      298427.62     -344.36639     -1893.4385     -316.63926      5765.6168      3094.6679      8860.2847      154992.21      42.634381      42.634381      85.268762          16004 
    110000   2814.5237      299841.64      639.33656      301918.26      297069.46      300537.21     -198.96028      1186.6119      1371.2957      5821.9833      3097.233       8919.2163      154900.81      42.625999      42.625999      85.251997          16004 
    111000   2815.3322      302223.44      645.72661      301633.72      301220.44      303816.15     -392.61646      2673.5153      1106.7585      5823.6557      3083.4513      8907.1069      154816.83      42.618294      42.618294      85.236587          16004 
    112000   2797.9178      295895.05      652.11433      295740.97      295496.88      296447.3      -2170.8048     -34.957769      2917.9928      5787.6331      3051.2596      8838.8926      155156.41      42.649431      42.649431      85.298862          16004 
    113000   2779.6711      302570.46      658.50212      303106.19      302693.56      301911.64     -550.76592      448.54886     -868.19753      5749.8889      3087.0805      8836.9694      154775.94      42.614542      42.614542      85.229083          16004 
    114000   2834.0689      301746.06      664.89025      301112.19      302339.44      301786.54      372.89975     -479.52732     -3083.382       5862.4135      3058.4425      8920.856       154864.02      42.622623      42.622623      85.245247          16004 
    115000   2792.7161      297651.01      671.27752      296359.68      297822.17      298771.19      2459.0198      1026.1287      173.78238      5776.8731      3048.9667      8825.8399      155024.21      42.637314      42.637314      85.274629          16004 
    116000   2795.6316      298470.38      677.66466      298602.19      297343.93      299465.02     -1503.8084     -2289.5708      572.04833      5782.9041      3124.0053      8906.9094      154986.67      42.633872      42.633872      85.267745          16004 
    117000   2808.4709      303738.9       684.05095      304443.22      304654.58      302118.9      -438.38384      1062.6477     -1415.0834      5809.4627      3075.363       8884.8257      154679.43      42.605682      42.605682      85.211363          16004 
    118000   2792.8338      299353.63      690.44152      300085.6       299256.09      298719.22      637.7157      -739.41949      1251.4243      5777.1166      3068.5078      8845.6244      154957.2       42.63117       42.63117       85.262341          16004 
    119000   2822.7299      296116.66      696.82877      295610.38      295739.92      296999.67      583.6248       1164.3482      1424.722       5838.9581      2995.725       8834.6831      155143.78      42.648274      42.648274      85.296547          16004 
    120000   2831.2162      301199.05      703.216        299718.33      301458.85      302419.98      751.30619      287.19456     -1334.4747      5856.5126      3135.8621      8992.3747      154862.48      42.622482      42.622482      85.244964          16004 
    121000   2805.1521      300100.42      709.60605      298996.12      299851.25      301453.9      -2049.7028      285.61927      463.73914      5802.5977      3070.2758      8872.8735      154927.86      42.62848       42.62848       85.256959          16004 
    122000   2778.7204      298617.33      715.99244      298613.62      298274.76      298963.61      1328.5035      403.01062      219.92944      5747.9223      3117.0632      8864.9856      155035.02      42.638305      42.638305      85.276611          16004 
    123000   2772.958       303737.56      722.38036      302839.38      304833.73      303539.58     -399.35315     -2592.4553      959.82796      5736.0025      3110.1212      8846.1237      154667.96      42.604629      42.604629      85.209258          16004 
    124000   2811.233       301017.96      728.7682       301897.75      300605.22      300550.9       1280.6179      562.55024      2920.2272      5815.1763      3082.9415      8898.1178      154945.27      42.630077      42.630077      85.260153          16004 
    125000   2797.0618      298249.87      735.15815      296588.67      299290.05      298870.89      869.62856      350.8214       3889.067       5785.8624      3054.7622      8840.6245      154985.89      42.633801      42.633801      85.267602          16004 
    126000   2863.123       300149.72      741.54585      300398.47      299113.94      300936.75     -1805.3047     -509.64276      2448.0811      5922.5134      3139.6186      9062.1321      154984.32      42.633657      42.633657      85.267315          16004 
    127000   2783.3522      300411.1       747.93653      301361.87      300663.5       299207.94     -1230.4285      350.00737     -2013.6249      5757.5034      3085.1829      8842.6863      154877.21      42.623834      42.623834      85.247668          16004 
    128000   2767.2996      296996.36      754.32909      297220.99      297200.76      296567.35      588.83815      292.09472      2002.7095      5724.298       3106.1851      8830.483       155061.32      42.640716      42.640716      85.281433          16004 
    129000   2792.6102      299909.1       760.71831      301003.91      298492.58      300230.81     -238.91204     -726.6856      -1231.0739      5776.6542      3040.2399      8816.8941      154875.82      42.623706      42.623706      85.247412          16004 
    130000   2831.2166      304499.23      767.11091      303447.23      305806.08      304244.37      2373.4506     -1780.4806      1227.7196      5856.5134      3140.0623      8996.5757      154660.72      42.603965      42.603965      85.207929          16004 
    131000   2793.9371      298198.01      773.5023       297971.89      298084.35      298537.8      -2360.832       1685.8399     -986.48176      5779.399       3092.432       8871.831       155024.34      42.637327      42.637327      85.274653          16004 
    132000   2817.7676      298683.28      779.89549      299785.85      298100.19      298163.82      604.40915      1856.3744      1265.182       5828.6934      3069.3683      8898.0617      155041.66      42.638914      42.638914      85.277829          16004 
    133000   2773.6167      301523.04      786.2879       302551.09      302289.25      299728.78     -1248.0091      2289.6706      439.36131      5737.3651      3092.8786      8830.2437      154775.92      42.61454       42.61454       85.229079          16004 
    134000   2793.8099      299093.15      792.67584      299012.4       299341.3       298925.74     -1311.2826      2405.2356      1069.2928      5779.1357      3081.461       8860.5968      154950.62      42.630567      42.630567      85.261133          16004 
    135000   2786.8443      295677.09      799.0692       295291.5       295308.59      296431.18     -441.32501      843.41413      697.64909      5764.7271      3091.096       8855.823       155186.22      42.652162      42.652162      85.304324          16004 
    136000   2810.9561      304235.85      805.4601       305063.62      304206.1       303437.84      293.70725      474.91423      955.57408      5814.6035      3164.8401      8979.4436      154762.08      42.613269      42.613269      85.226539          16004 
    137000   2777.5665      298691.96      811.85219      297875.11      300026.71      298174.07      1246.5897     -4409.5107      545.06082      5745.5354      3004.5161      8750.0515      154904.18      42.626307      42.626307      85.252614          16004 
    138000   2782.2131      298794         818.244        299807.73      297659.02      298915.25     -2718.2358     -1896.7163      19.698785      5755.1472      3111.678       8866.8252      154978.67      42.633139      42.633139      85.266279          16004 
    139000   2814.7464      299190.82      824.6329       299931.39      299993.06      297648        -1918.8112      1452.5892     -72.097229      5822.444       3054.0606      8876.5047      154965.34      42.631916      42.631916      85.263833          16004 
    140000   2813.3281      303055.89      831.02452      302205.9       302459.34      304502.43      1832.6094     -2362.6702      1010.1725      5819.5101      3084.5838      8904.0939      154758.97      42.612984      42.612984      85.225967          16004 
    141000   2818.8327      301518.53      837.41581      301617.95      301451.46      301486.18      1031.1516      456.25326      2884.0761      5830.8968      3080.0576      8910.9543      154845.67      42.62094       42.62094       85.24188           16004 
    142000   2781.5521      296044.86      843.8074       297025.43      296184.21      294924.94      1298.4462      46.555569     -487.90342      5753.7798      3013.3234      8767.1032      155083.66      42.642764      42.642764      85.285529          16004 
    143000   2816.3749      300513.1       850.19151      300637         300487.56      300414.74     -1643.0703      2516.3939      1455.7441      5825.8126      3076.6755      8902.4881      154912.07      42.627031      42.627031      85.254062          16004 
    144000   2797.1594      300347.45      856.57679      300362.57      301251.55      299428.21     -2281.5893     -1239.7297      1253.2693      5786.0644      3047.9463      8834.0107      154814.29      42.618061      42.618061      85.236122          16004 
    145000   2830.1784      303605.97      862.96975      303282.64      304631.62      302903.66      570.50413     -390.56833     -565.59994      5854.3658      3185.9171      9040.2829      154782.67      42.615159      42.615159      85.230318          16004 
    146000   2781.1743      296309.27      869.35966      295441.13      297010.15      296476.53      267.11394      4538.5563     -526.27779      5752.9984      3060.3358      8813.3342      155187.24      42.652256      42.652256      85.304512          16004 
    147000   2787.2274      301020.39      875.74862      300713.64      301606.48      300741.04      2288.9379     -1264.8513     -844.01375      5765.5195      3117.8451      8883.3646      154943.85      42.629946      42.629946      85.259892          16004 
    148000   2823.8071      302575.06      882.14056      302885.57      302671.11      302168.51      1966.7845     -18.933066     -1572.3848      5841.1864      3089.644       8930.8304      154857.45      42.622021      42.622021      85.244042          16004 
    149000   2807.1392      296887.55      888.53245      296984.04      296176.56      297502.05      36.355563     -2419.3387      2001.043       5806.7082      3070.0376      8876.7458      155138.19      42.647762      42.647762      85.295524          16004 
    150000   2760.1553      300932.78      894.92272      299905.77      300816.62      302075.94      1364.5193     -1883.7257     -324.4797       5709.5194      3115.8118      8825.3312      154865.77      42.622784      42.622784      85.245567          16004 
    151000   2809.1457      302126.57      901.31894      302756.1       300885.97      302737.64      61.01926      -480.62714     -1596.6336      5810.8586      3095.8494      8906.708       154842.35      42.620635      42.620635      85.241271          16004 
    152000   2772.5254      298247.23      907.71313      297920.55      298740         298081.13      2481.0243      3137.6159      809.18965      5735.1076      3055.4973      8790.6049      154958.23      42.631265      42.631265      85.26253           16004 
    153000   2795.3547      300251.93      914.10552      299215.54      299713.05      301827.19     -2123.7478     -2058.7826      1866.5091      5782.3312      3116.1752      8898.5064      154928.87      42.628572      42.628572      85.257145          16004 
    154000   2810.2422      302272.73      920.4998       303243.8       300444.89      303129.51      262.92537     -299.72462     -435.06345      5813.1267      3034.4013      8847.5281      154749.6       42.612123      42.612123      85.224247          16004 
    155000   2766.4925      297404.7       926.89383      296363.27      297465.86      298384.95      1906.8299     -291.30245      2823.8264      5722.6283      3133.3721      8856.0004      155053.31      42.639982      42.639982      85.279964          16004 
    156000   2790.7212      297157.53      933.28529      296676.14      297085.65      297710.8      -1954.1924     -278.0555      -704.0341       5772.7466      3073.9065      8846.6532      155091.12      42.643448      42.643448      85.286896          16004 
    157000   2814.4952      301557.47      939.67909      301341.08      302255.31      301076.01     -1367.3223      2753.6987      405.55854      5821.9242      3084.8283      8906.7526      154834.79      42.619941      42.619941      85.239883          16004 
    158000   2812.4709      299924.73      946.07274      299916.54      299697.77      300159.86     -2617.5214     -470.93408      1149.7572      5817.737       3089.974       8907.711       154977.04      42.63299       42.63299       85.26598           16004 
    159000   2795.4868      298805.98      952.46852      299638.22      297023.56      299756.17      897.9453      -792.28146     -437.60495      5782.6045      3036.7558      8819.3603      154934.38      42.629078      42.629078      85.258155          16004 
    160000   2814.9925      304651.19      958.86655      304106.72      304433.59      305413.27     -2128.4198      2213.4158     -813.42049      5822.9531      3146.2561      8969.2092      154709.41      42.608434      42.608434      85.216868          16004 
    161000   2805.9994      296841.26      965.26293      296893.86      296338.7       297291.22     -2795.2858      694.57981      865.63235      5804.3503      3040.7561      8845.1063      155161.23      42.649872      42.649872      85.299745          16004 
    162000   2804.2813      298200         971.66106      297969.63      298469.79      298160.6       515.21835     -1822.7807      1395.9604      5800.7963      3062.8174      8863.6137      155059.05      42.640509      42.640509      85.281017          16004 
    163000   2798.4826      300575.37      978.05916      301163.04      300110.55      300452.53     -278.51516      1172.2114     -47.121701      5788.8014      3112.6798      8901.4811      154896.5       42.625603      42.625603      85.251205          16004 
    164000   2831.2184      299070.04      984.45476      300354.89      298025.63      298829.61      211.07715     -2538.7998      788.21662      5856.5171      3067.8928      8924.41        155007.76      42.635807      42.635807      85.271613          16004 
    165000   2801.5211      299775.01      990.85239      299271.26      300147.33      299906.43     -1499.0461     -888.36685      361.78558      5795.0868      3034.7989      8829.8857      154891.99      42.625189      42.625189      85.250378          16004 
    166000   2776.6212      302772.84      997.24977      301617.27      304450.16      302251.08      68.240041     -1284.4218     -3918.995       5743.5801      3146.2312      8889.8113      154810.63      42.617725      42.617725      85.23545           16004 
    167000   2792.285       299315.75      1003.6467      299582.13      300193.53      298171.59     -587.92158      1178.5096      1775.5016      5775.9815      3074.4428      8850.4243      154936.09      42.629234      42.629234      85.258469          16004 
    168000   2814.7959      298436.01      1010.0462      297483.6       300138.98      297685.45      1395.5504     -479.54839      923.32616      5822.5464      3061.2663      8883.8127      154991.17      42.634285      42.634285      85.268571          16004 
    169000   2793.2511      302934.04      1016.4413      302137.91      303337         303327.22      68.967016     -1366.0769      1951.7223      5777.9797      3052.1639      8830.1436      154686.39      42.606321      42.606321      85.212643          16004 
    170000   2820.9946      303156.21      1022.8388      304267.49      302612.1       302589.04      3253.116      -353.48631      977.94969      5835.3686      3068.6802      8904.0488      154761.41      42.613207      42.613207      85.226415          16004 
    171000   2785.7058      296969.01      1029.2321      296412.66      297585.36      296909.01      776.73715     -239.22934     -2718.561       5762.3721      3055.196       8817.5682      155089.6       42.643308      42.643308      85.286616          16004 
    172000   2839.8597      301592.63      1035.6231      302177.97      300421.11      302178.79     -937.1671       1250.3945      36.107499      5874.3922      3096.7386      8971.1308      154884.27      42.624481      42.624481      85.248961          16004 
    173000   2807.1908      301272.51      1042.0162      301754.36      300319.79      301743.38      1055.2345      752.4917      -554.49133      5806.8149      3091.4193      8898.2341      154861.58      42.622399      42.622399      85.244799          16004 
    174000   2792.8263      299603.34      1048.4114      298151.86      300194         300464.15     -2296.4833     -3664.1871     -291.39763      5777.101       3102.9972      8880.0983      154964.07      42.6318        42.6318        85.2636            16004 
    175000   2802.8932      298547         1054.8048      298140.1       299234.11      298266.8       233.55742     -228.35768     -128.77966      5797.9251      3063.9375      8861.8626      154954.11      42.630887      42.630887      85.261775          16004 
    176000   2794.9014      303901.76      1061.1998      303573.15      304806.76      303325.38      689.6486      -1429.7324      1414.5073      5781.3937      3088.6291      8870.0227      154691.27      42.606769      42.606769      85.213538          16004 
    177000   2840.257       296422.41      1067.593       297517.07      295804.99      295945.17      407.28087      1582.4678      485.48519      5875.2139      3065.9964      8941.2104      155154.56      42.649261      42.649261      85.298522          16004 
    178000   2793.2611      297603.18      1073.9846      297848.8       298490.71      296470.03     -405.65749     -47.061579     -404.76794      5778.0005      3048.0014      8826.0019      155055.33      42.640167      42.640167      85.280334          16004 
    179000   2811.4455      302238.25      1080.3778      302393.94      302511.27      301809.52      838.09534     -1363.929       1162.0018      5815.6159      3147.6983      8963.3142      154835.3       42.619989      42.619989      85.239978          16004 
    180000   2792.3679      298894.01      1086.7714      298477.1       299967.83      298237.11      1435.2229      692.16718      552.22136      5776.1528      3082.2783      8858.4312      155021.55      42.63707       42.63707       85.274141          16004 
    181000   2811.8092      300280.29      1093.1669      299506.76      299788.08      301546.04     -420.79029     -1710.8166      191.98886      5816.3683      3093.7564      8910.1246      154940.94      42.629679      42.629679      85.259358          16004 
    182000   2788.3401      304380.06      1099.5643      303892.97      305985.55      303261.65     -2405.1181      812.51957      1510.8979      5767.8213      3086.4564      8854.2777      154623.36      42.600533      42.600533      85.201067          16004 
    183000   2787.2007      296232.63      1105.9577      297257.27      295843.12      295597.51     -1336.8749      1689.1911      2093.3946      5765.4642      3068.3244      8833.7887      155140.08      42.647934      42.647934      85.295869          16004 
    184000   2824.6017      298409.26      1112.3513      299351.33      298009.68      297866.76     -579.24859     -1470.5293     -1492.8878      5842.83        3115.6495      8958.4795      155043.45      42.639078      42.639078      85.278156          16004 
    185000   2808.6355      302943.12      1118.7442      304063.11      302634.23      302132.03     -577.57471     -801.0358       1058.5528      5809.8032      3079.649       8889.4522      154756.11      42.612721      42.612721      85.225442          16004 
    186000   2779.9657      297360.2       1125.1365      298396.45      296152.1       297532.04      1010.0364     -818.08804     -1281.6013      5750.4984      3056.4814      8806.9798      155044.99      42.639219      42.639219      85.278438          16004 
    187000   2805.0392      299881.86      1131.5325      299818.99      300751.69      299074.88     -1581.3256     -1126.1059      2341.4074      5802.3641      3110.8682      8913.2323      154959.01      42.631336      42.631336      85.262672          16004 
    188000   2806.1253      301806.02      1137.9253      301599.32      302397.93      301420.82      483.98574      824.96396      583.9266       5804.6108      3078.4178      8883.0285      154814.39      42.61807       42.61807       85.23614           16004 
    189000   2818.148       297927.12      1144.3171      296814.37      297956.94      299010.06      455.86801      633.80574      402.50911      5829.4804      3110.6402      8940.1206      155069.44      42.641461      42.641461      85.282922          16004 
    190000   2803.6583      300688.67      1150.709       300080.2       301349.92      300635.88      1857.827      -564.14923      583.68141      5799.5076      3039.2112      8838.7188      154855.94      42.621883      42.621883      85.243765          16004 
    191000   2809.146       303968.19      1157.1002      306110.54      303002.15      302791.87      497.63738      670.25455      564.99115      5810.8593      3124.8124      8935.6716      154728.95      42.610228      42.610228      85.220456          16004 
    192000   2789.7946      293216.43      1163.495       293512.47      292328.16      293808.67     -1275.286       751.7784      -740.72614      5770.8299      3037.3739      8808.2038      155304.36      42.662983      42.662983      85.325966          16004 
    193000   2800.7042      298894.96      1169.8914      298919         299564.48      298201.39      418.88624      862.14337     -968.24743      5793.397       3086.2289      8879.626       155030.72      42.637912      42.637912      85.275823          16004 
    194000   2848.8805      302251.5       1176.2834      302123.16      302051.8       302579.54      438.94322      1812.1124      201.35973      5893.0521      3044.4903      8937.5423      154805.1       42.617218      42.617218      85.234435          16004 
    195000   2767.23        296833.29      1182.6776      297060.72      296492.25      296946.89     -64.973412      630.86476     -966.60087      5724.154       3088.2398      8812.3938      155073.81      42.641862      42.641862      85.283723          16004 
    196000   2825.4852      301724.24      1189.0714      301729.41      302180.14      301263.17      486.64416     -1194.352      -1821.5473      5844.6578      3078.063       8922.7208      154826.17      42.619151      42.619151      85.238301          16004 
    197000   2812.2339      303086.67      1195.4645      303380.63      302617.86      303261.53      826.79397     -61.941766      854.10062      5817.2467      3071.5529      8888.7996      154727.12      42.61006       42.61006       85.22012           16004 
    198000   2772.8255      297973.68      1201.8571      297545.93      298323.78      298051.34      159.8121      -246.19713     -1202.7219      5735.7284      3082.18        8817.9084      155053.37      42.639988      42.639988      85.279976          16004 
    199000   2834.769       300563.46      1208.253       300507.39      299655.05      301527.95     -253.05271     -1387.0514     -2261.8928      5863.8617      3076.1432      8940.0049      154884.31      42.624485      42.624485      85.24897           16004 
    200000   2803.037       301067.52      1214.6522      301670.47      300580         300952.08      955.85638     -2678.3977     -1588.0115      5798.2225      3063.9747      8862.1972      154896.01      42.625558      42.625558      85.251117          16004 
    201000   2816.2704      296862.46      1221.0467      297881.92      296611.73      296093.74     -640.47601     -1407.1028      1030.1932      5825.5965      3046.902       8872.4985      155107.07      42.644909      42.644909      85.289819          16004 
    202000   2799.7158      303783.81      1227.4407      303750.46      304009.32      303591.66      1674.5965      939.8753       1005.3111      5791.3524      3156.7868      8948.1392      154752.4       42.61238       42.61238       85.224761          16004 
    203000   2805.9126      301836.4       1233.8358      301890.71      302385.81      301232.69      2188.673      -517.92163     -13.679282      5804.1708      3070.334       8874.5048      154831.65      42.619654      42.619654      85.239308          16004 
    204000   2783.6589      294928.64      1240.2334      295717.76      294218         294850.15     -2094.6408     -1270.5927     -1089.2166      5758.1379      3048.1019      8806.2398      155168.09      42.650501      42.650501      85.301002          16004 
    205000   2820.0711      301332.54      1246.6272      300439.15      302587.54      300970.92     -1820.2003     -902.41987     -504.01307      5833.4583      3117.1767      8950.635       154859.93      42.622248      42.622248      85.244496          16004 
    206000   2795.6821      300847.24      1253.0247      299856.7       300711.21      301973.8       1945.2825     -402.87579      581.0812       5783.0084      3078.3311      8861.3394      154889.44      42.624956      42.624956      85.249911          16004 
    207000   2815.8333      297713.86      1259.4201      296808.88      298968.03      297364.66     -2273.5972     -1255.6563     -1042.8993      5824.6923      3153.0423      8977.7346      155089.34      42.643285      42.643285      85.28657           16004 
    208000   2806.1523      302506.26      1265.8143      301920.18      302641.03      302957.57     -250.56155     -1147.1342      1599.2428      5804.6665      3089.9163      8894.5828      154766.05      42.613633      42.613633      85.227267          16004 
    209000   2776.1392      300597.19      1272.2152      300959.35      299775.08      301057.14      916.46463     -1274.9585      3524.713       5742.5831      3082.7094      8825.2924      154854.88      42.621785      42.621785      85.24357           16004 
    210000   2792.0708      296477.54      1278.6131      297237.84      296954.64      295240.14      1355.0213     -422.4251       834.59583      5775.5384      3128.1111      8903.6495      155134.37      42.647412      42.647412      85.294824          16004 
    211000   2787.2637      304160.1       1285.011       304456.02      304612.98      303411.31     -217.6821       965.7063       1916.4863      5765.5947      3122.7552      8888.3498      154707.73      42.608281      42.608281      85.216561          16004 
    212000   2779.6255      297519.62      1291.4087      297173.66      298347.82      297037.38     -789.4815      -1257.9668     -670.47079      5749.7947      3051.0793      8800.874       155004.66      42.635522      42.635522      85.271045          16004 
    213000   2827.7864      297268.12      1297.8037      297732.2       297788.05      296284.12      504.39678     -1423.2129      2470.3516      5849.4179      3043.3421      8892.7599      155121.19      42.646203      42.646203      85.292407          16004 
    214000   2792.3119      303692.79      1304.205       304818.85      302312.6       303946.91      728.4725       2854.9029      538.79932      5776.037       3096.0861      8872.1231      154702.29      42.607781      42.607781      85.215562          16004 
    215000   2817.9961      296994.58      1310.5948      297445.92      298043.31      295494.51      1087.3771     -1824.5727      462.24106      5829.1662      3046.7963      8875.9625      155050.69      42.639742      42.639742      85.279483          16004 
    216000   2771.3878      301459.46      1316.9865      300161.86      302590.48      301626.05      1220.3473      723.3548       1979.2707      5732.7545      3124.1425      8856.897       154843.16      42.62071       42.62071       85.241419          16004 
    217000   2812.1634      302168.03      1323.3789      301334.32      303189.25      301980.51     -801.20853      639.36131     -744.65745      5817.1008      3094.8738      8911.9746      154793.72      42.616173      42.616173      85.232346          16004 
    218000   2793.9075      293805.4       1329.7721      293442.85      294212.05      293761.28      1105.0547     -777.4692      -743.44741      5779.3376      2983.6849      8763.0224      155174.11      42.651053      42.651053      85.302105          16004 
    219000   2808.6582      301187.15      1336.1677      300245.3       301446.22      301869.94     -236.23516      2085.0716     -383.55299      5809.8502      3144.3351      8954.1853      154830.37      42.619536      42.619536      85.239072          16004 
    220000   2804.9865      300983.23      1342.5621      300821.61      300097         302031.07     -1279.3607      90.126282     -533.31193      5802.255       3095.2453      8897.5003      154854.56      42.621755      42.621755      85.243511          16004 
    221000   2824.5548      299125.23      1348.9593      299390.39      298003.09      299982.22     -1274.4628     -1115.1444     -1078.8226      5842.7331      3215.4571      9058.1902      155099.7       42.644235      42.644235      85.288469          16004 
    222000   2776.2218      301199.97      1355.3553      301978.39      301089.56      300531.98      1190.9242     -1215.2093     -305.92076      5742.7539      3040.7693      8783.5232      154776.33      42.614577      42.614577      85.229155          16004 
    223000   2818.7705      302089.3       1361.7518      302187.19      302854.78      301225.94      85.553183      896.69699      3536.0651      5830.7679      3090.161       8920.9289      154816.76      42.618287      42.618287      85.236574          16004 
    224000   2790.6829      292632.66      1368.1455      292876.92      291928.87      293092.18     -841.09085     -4354.3205     -1361.0302      5772.6673      2982.1937      8754.8611      155308.68      42.663379      42.663379      85.326757          16004 
    225000   2805.5855      302049.95      1374.5422      304016.86      301477.66      300655.32      1487.4424     -1615.279       821.50457      5803.4941      3118.9101      8922.4042      154800.41      42.616787      42.616787      85.233573          16004 
    226000   2773.3156      301272.74      1380.9389      302615.48      300916.5       300286.26      1143.0316      3478.6737      504.31427      5736.7422      3072.2148      8808.957       154811.51      42.617806      42.617806      85.235611          16004 
    227000   2773.8712      296606.41      1387.3343      296380.99      297444.77      295993.48      1198.0214     -1467.6996      86.629054      5737.8916      3128.9438      8866.8354      155134.66      42.647438      42.647438      85.294876          16004 
    228000   2791.9428      299933.56      1393.73        300832.1       298784.95      300183.65     -2414.3025      154.36248      2337.6935      5775.2735      3020.0123      8795.2858      154843.24      42.620717      42.620717      85.241435          16004 
    229000   2796.6416      304969.82      1400.1264      304507.57      304868.49      305533.4      -1727.4213     -3105.4585      988.64504      5784.9932      3160.0265      8945.0197      154674.93      42.605269      42.605269      85.210537          16004 
    230000   2782.0479      297737.24      1406.519       297649.33      297436.86      298125.54     -1997.569       2628.2186     -97.509662      5754.8054      3051.343       8806.1484      155049.06      42.639592      42.639592      85.279185          16004 
    231000   2817.4929      300093.72      1412.9144      300141.39      299874.71      300265.07      2160.7733      74.975512     -614.28723      5828.1251      3134.727       8962.8521      154952.25      42.630717      42.630717      85.261434          16004 
    232000   2787.5296      301128.38      1419.317       302627.68      299963.28      300794.19      1271.9086     -824.99317      312.10246      5766.1447      3104.8387      8870.9834      154822.14      42.618781      42.618781      85.237563          16004 
    233000   2807.8406      297861.47      1425.7121      298053.69      297287.38      298243.34     -1139.895      -1635.4363      943.86473      5808.1589      3113.8181      8921.9771      155106.99      42.644903      42.644903      85.289805          16004 
    234000   2808.4806      294825.76      1432.1088      294625.28      294057.54      295794.48      502.85127      1733.1202     -132.99124      5809.4829      2998.2231      8807.7061      155249.21      42.657932      42.657932      85.315865          16004 
    235000   2821.5627      306018.48      1438.5051      304579.87      306994.31      306481.27     -1317.3408     -890.10149     -1765.1256      5836.5439      3092.6001      8929.144       154611.06      42.599404      42.599404      85.198808          16004 
    236000   2801.8045      298924.85      1444.9024      299258.83      298123.61      299392.11      248.29197     -3188.5773     -2813.9812      5795.673       3137.2793      8932.9523      154995.42      42.634675      42.634675      85.26935           16004 
    237000   2778.0783      297719.5       1451.2991      297901.19      299149.79      296107.51     -1423.0935     -2238.3757      228.25356      5746.5942      3072.2408      8818.8349      155039.69      42.638734      42.638734      85.277467          16004 
    238000   2799.3642      302282.41      1457.6929      301630.74      303357.55      301858.92      201.00121      819.44056      3001.4989      5790.6251      3208.6944      8999.3196      154790.92      42.615916      42.615916      85.231832          16004 
    239000   2821.0826      299838.97      1464.0902      299496.54      300359.34      299661.02     -517.20027      1452.9949     -1192.8515      5835.5507      3079.6853      8915.236       154894.23      42.625395      42.625395      85.25079           16004 
    240000   2780.4541      297903.89      1470.4879      298279.86      297618.07      297813.73      4549.5292     -2725.4934      388.53769      5751.5086      2985.111       8736.6196      154907.8       42.62664       42.62664       85.25328           16004 
    241000   2808.7114      299949.76      1476.8817      299878.13      300931.9       299039.24     -991.22099      1867.6623     -3176.8003      5809.9603      3159.7544      8969.7147      154954.53      42.630926      42.630926      85.261852          16004 
    242000   2816.459       301460.26      1483.2775      301858.02      301442.75      301080.02     -926.18202      1045.5372     -2811.9695      5825.9866      3062.4045      8888.3911      154780.87      42.614993      42.614993      85.229987          16004 
    243000   2789.1961      296729.93      1489.6764      295454.53      295939.38      298795.87     -2009.9302     -502.87572     -127.1246       5769.5918      3021.6809      8791.2727      155055.44      42.640177      42.640177      85.280354          16004 
    244000   2797.2784      304909.84      1496.0708      305241.99      304527.88      304959.64     -3255.6398      3002.2618      2824.0085      5786.3104      3138.327       8924.6374      154676.57      42.60542       42.60542       85.210839          16004 
    245000   2817.5903      298366.86      1502.466       297258.32      297555.74      300286.54      1230.9702      1927.6229      613.74974      5828.3268      3142.5894      8970.9162      155054.46      42.640088      42.640088      85.280176          16004 
    246000   2773.1594      298925.83      1508.8613      298927.51      300148.92      297701.06     -397.50434      1101.9592     -484.77158      5736.4191      3102.9381      8839.3572      154961.76      42.631589      42.631589      85.263177          16004 
    247000   2832.7879      300942.54      1515.2567      301573.29      301494.32      299760.02     -1535.3149      829.69948      2161.6686      5859.7637      3117.1294      8976.8931      154915.97      42.627389      42.627389      85.254777          16004 
    248000   2816.0037      299730.59      1521.6527      299813.33      299687.93      299690.51      558.5506       1569.9724     -415.38478      5825.0447      3111.3698      8936.4146      154933.19      42.628969      42.628969      85.257937          16004 
    249000   2801.5635      296359.65      1528.0458      298252.72      295024.74      295801.48     -2555.807      -2263.3539      105.85241      5795.1745      3044.7506      8839.9252      155105.45      42.644761      42.644761      85.289522          16004 
    250000   2780.1594      303083.43      1534.4423      303009.06      302891.65      303349.59      259.4937       2015.0073      1884.3776      5750.899       3125.6015      8876.5006      154769.78      42.613976      42.613976      85.227953          16004 
    251000   2823.1394      303397.65      1540.8383      302415.1       305021.95      302755.91      941.61681      1423.8707      50.26254       5839.8053      3131.9499      8971.7552      154746.13      42.611806      42.611806      85.223611          16004 
    252000   2784.775       298442.93      1547.2314      298443.78      298095.32      298789.7       1255.246      -3071.6466      570.93702      5760.4466      3044.1993      8804.6459      155042.49      42.638991      42.638991      85.277981          16004 
    253000   2830.7298      299897.07      1553.6274      299367.55      300309.22      300014.44      131.65346      1958.9668      1106.1923      5855.5064      3156.2939      9011.8003      155038.38      42.638614      42.638614      85.277228          16004 
    254000   2794.2058      300741.18      1560.0215      301166.17      300190.23      300867.14      1237.8045      532.24562     -3384.0222      5779.9547      3050.9193      8830.8741      154849.52      42.621293      42.621293      85.242586          16004 
    255000   2805.9993      301979.27      1566.4148      302527.74      301433.94      301976.12     -1124.8398      1240.6163      1189.2429      5804.3501      3069.0328      8873.3829      154787.61      42.615613      42.615613      85.231225          16004 
    256000   2796.2144      296029.47      1572.8117      295291.53      295967.83      296829.07      1833.6449     -1000.9722      1444.8137      5784.1096      3005.0421      8789.1517      155144.35      42.648326      42.648326      85.296653          16004 
    257000   2795.6553      300603.48      1579.2047      298840.93      301089.58      301879.94      1517.9845     -282.63458      2694.3483      5782.9531      3068.1542      8851.1074      154883.27      42.62439       42.62439       85.248779          16004 
    258000   2803.6187      302745.05      1585.5984      303136.35      302874.96      302223.83     -815.92941      2951.6033     -1628.1253      5799.4257      3164.5588      8963.9845      154813.42      42.617981      42.617981      85.235962          16004 
    259000   2791.3691      298772.55      1591.9927      297639.16      299433.52      299244.95      1539.8107     -2435.6131      1583.4779      5774.0869      3028.9168      8803.0038      154996.59      42.634782      42.634782      85.269565          16004 
    260000   2792.2193      302072.34      1598.3846      302691.83      301246.3       302278.89     -1718.6225      639.57031     -942.22563      5775.8455      3116.8677      8892.7131      154801.91      42.616925      42.616925      85.23385           16004 
    261000   2795.0122      303583.72      1604.7785      304169.3       304221.24      302360.62      328.89086     -1000.4594     -281.75309      5781.6228      3081.0127      8862.6355      154711.48      42.608625      42.608625      85.21725           16004 
    262000   2780.5775      294804.82      1611.176       294938.24      295540.79      293935.42     -727.8797      -1115.7915      1220.1266      5751.7639      3027.6024      8779.3664      155210.64      42.6544        42.6544        85.308799          16004 
    263000   2777.3799      300743.44      1617.5698      300580.53      302465.58      299184.21     -520.77107     -1329.434      -161.48558      5745.1494      3098.0395      8843.1889      154884.98      42.624546      42.624546      85.249093          16004 
    264000   2844.5454      301500.67      1623.963       300447.82      302199.34      301854.85     -320.90469      3809.4342      482.63557      5884.0848      3096.9109      8980.9957      154875.72      42.623697      42.623697      85.247394          16004 
    265000   2794.5223      297144.98      1630.3557      296007.9       298121.42      297305.64      1414.7957     -1595.4122      1344.8905      5780.6094      3035.1632      8815.7726      154996.15      42.634742      42.634742      85.269485          16004 
    266000   2843.385       296965.5       1636.7495      296506.76      298199.36      296190.38      1115.6071     -2684.3281     -1902.381       5881.6843      3031.4579      8913.1422      155101.63      42.644411      42.644411      85.288822          16004 
    267000   2804.008       305712.39      1643.1447      306019.78      306032.78      305084.62     -2521.483       1471.9849      293.69009      5800.231       3182.6688      8982.8998      154613.37      42.599616      42.599616      85.199231          16004 
    268000   2789.4734      298894.49      1649.5375      298267.38      298806.86      299609.23     -175.74909      1931.0103     -2024.2946      5770.1655      3074.9931      8845.1586      154956.86      42.631139      42.631139      85.262278          16004 
    269000   2777.1534      299430.98      1655.9323      300039.41      300503.8       297749.73     -934.90962     -1145.0742     -787.44874      5744.6809      3084.0776      8828.7585      154946.25      42.630166      42.630166      85.260333          16004 
    270000   2803.2593      302909.65      1662.3248      301991.8       302333.83      304403.33      291.2878       1592.2417      195.99437      5798.6823      3132.8419      8931.5243      154764.4       42.613482      42.613482      85.226965          16004 
    271000   2784.7806      297204.62      1668.7161      296660.14      297297.21      297656.49      411.56704     -25.855084      805.64883      5760.4582      3098.4136      8858.8718      155059         42.640504      42.640504      85.281008          16004 
    272000   2805.5676      297689.5       1675.109       298569.03      296710.6       297788.88     -181.28646      1448.4829      528.17424      5803.4572      3063.3206      8866.7778      155083.44      42.642744      42.642744      85.285488          16004 
    273000   2810.8257      305624.1       1681.5018      305691.51      304910.96      306269.84      1153.7595     -974.32133     -500.50283      5814.3338      3143.2438      8957.5776      154643.7       42.602402      42.602402      85.204803          16004 
    274000   2789.6759      298173.08      1687.8938      298552.15      297250.2       298716.91      112.42777      2115.3124      733.92129      5770.5843      3080.1871      8850.7713      155028.23      42.637683      42.637683      85.275367          16004 
    275000   2790.1962      300699.25      1694.2852      300029.64      300898.24      301169.87     -697.82        -1008.1458     -194.22557      5771.6606      3173.8508      8945.5114      154953.74      42.630853      42.630853      85.261706          16004 
    276000   2808.3379      301892.98      1700.6741      301221.65      303099.51      301357.77      1558.0542      3294.6312      876.01081      5809.1876      3080.1672      8889.3549      154802.7       42.616997      42.616997      85.233994          16004 
    277000   2778.8754      297250.43      1707.0689      297940.26      297537.83      296273.19     -830.03567      333.46992     -2088.4435      5748.243       3040.3445      8788.5875      155044.18      42.639145      42.639145      85.278291          16004 
    278000   2813.9032      296334.44      1713.462       296864.72      295441.2       296697.41     -2625.9238     -1362.6454     -283.84239      5820.6998      3035.4735      8856.1733      155145.83      42.648462      42.648462      85.296923          16004 
    279000   2831.8722      303595.42      1719.852       303875.62      303333.28      303577.35      203.7269      -3789.4653      475.44877      5857.8696      3120.4132      8978.2827      154750.18      42.612177      42.612177      85.224354          16004 
    280000   2802.2107      297242.73      1726.2458      298129.71      297086.03      296512.45      2991.7139      1003.2297      118.12695      5796.5133      3040.6974      8837.2107      155028.71      42.637727      42.637727      85.275454          16004 
    281000   2782.0971      297553.14      1732.6381      299146.19      296390.69      297122.55     -662.41321      1593.3024      285.26137      5754.9073      3139.7541      8894.6613      155039.21      42.63869       42.63869       85.27738           16004 
    282000   2787.2017      302507.59      1739.0306      302183.43      303271.06      302068.29      297.52547     -458.89645      1717.4535      5765.4664      3084.8529      8850.3193      154697.74      42.607363      42.607363      85.214726          16004 
    283000   2780.1841      300602.03      1745.4234      299665.72      301380.36      300760.02     -49.417805      677.17231      376.33045      5750.9501      3071.7909      8822.7411      154824.69      42.619015      42.619015      85.23803           16004 
    284000   2800.1824      300363.24      1751.815       300454.93      300863.22      299771.56     -314.24448     -2087.4451      1657.2974      5792.3175      3085.2921      8877.6096      154866.6       42.62286       42.62286       85.24572           16004 
    285000   2812.5306      300803.34      1758.208       301325.02      300831.65      300253.35      1027.8886      769.84527      2100.7033      5817.8606      3120.899       8938.7595      154882.6       42.624328      42.624328      85.248655          16004 
    286000   2784.4801      300288.82      1764.6028      299399.59      300462.92      301003.94      2853.651       299.94933     -1059.4895      5759.8366      3135.3241      8895.1607      154908.33      42.626688      42.626688      85.253377          16004 
[...]
   3930000   2747.0688      302543.16      6823.1617      301247.31      303229.52      303152.65      4974.3727     -2466.417      -3210.4834      5682.4495      3597.7002      9280.1498      154751.22      42.604474      42.604474      85.255746          16004 
   3931000   2735.8826      298489.48      6830.534       298724.95      299236.86      297506.62      2331.1689      1867.5931     -1421.0731      5659.3103      3569.3662      9228.6766      155025.51      42.629631      42.629631      85.306088          16004 
   3932000   2732.7366      297960.44      6837.9088      296919.1       298019.29      298942.94      214.89999      1584.9183     -2949.9018      5652.8027      3571.4341      9224.2367      155045.49      42.631462      42.631462      85.309751          16004 
   3933000   2744.3609      303550.52      6845.2886      304849.44      303098.47      302703.66      1763.1337      1315.6439      870.29208      5676.8479      3614.3304      9291.1783      154687.45      42.598622      42.598622      85.244034          16004 
   3934000   2739.1989      303181.75      6852.662       302324.05      304265.23      302955.98      498.76717     -237.61253      983.03019      5666.1702      3606.7152      9272.8853      154782.3       42.607326      42.607326      85.261453          16004 
   3935000   2745.3832      297909.15      6860.0385      298351.95      297308.41      298067.08     -764.69119     -1044.1436     -2438.931       5678.9627      3544.2227      9223.1853      155045.02      42.631419      42.631419      85.309665          16004 
   3936000   2730.9542      299761.78      6867.4113      299394.79      299837.85      300052.71     -1500.0985     -2147.6724     -1119.8214      5649.1156      3593.5703      9242.686       154936.92      42.62151       42.62151       85.289835          16004 
   3937000   2709.3507      301584.11      6874.7889      300738.98      302261.57      301751.78     -342.04055     -805.53566      470.70537      5604.4277      3642.7778      9247.2055      154911.67      42.619194      42.619194      85.285201          16004 
   3938000   2752.9765      298993.61      6882.1586      299819.09      298226.11      298935.63      1314.0445     -1280.4434     -633.05198      5694.6698      3538.1654      9232.8352      154984.31      42.625854      42.625854      85.29853           16004 
   3939000   2728.1946      301000.41      6889.5349      301014.37      302135.96      299850.89     -774.2986      -339.16989     -2386.0515      5643.4073      3609.5263      9252.9336      154876.5       42.615968      42.615968      85.278746          16004 
   3940000   2710.259       300236.78      6896.9038      301597.16      299767.12      299346.06      800.69091      1940.9153     -1645.3032      5606.3065      3643.766       9250.0725      154889.82      42.61719       42.61719       85.281192          16004 
   3941000   2753.2955      298655.83      6904.2763      301408.84      298032.77      296525.88      973.88002      3137.5006     -3032.3374      5695.3297      3530.4966      9225.8263      155018.53      42.628991      42.628991      85.304806          16004 
   3942000   2750.4287      299648.8       6911.6498      299877.85      300299.97      298768.57      350.42157     -1540.2098     -819.56986      5689.3996      3541.7592      9231.1588      154989.69      42.626347      42.626347      85.299516          16004 
   3943000   2743.3292      304031.18      6919.0257      304725.59      302937.6       304430.33      775.17025     -1766.5803     -1530.5685      5674.714       3609.5066      9284.2205      154705.27      42.600257      42.600257      85.247308          16004 
   3944000   2732.1245      296659.06      6926.4005      297631.9       296967.24      295378.05      637.76297      372.62801     -2428.8181      5651.5364      3560.4828      9212.0191      155084.02      42.634993      42.634993      85.316817          16004 
   3945000   2714.9679      297719.93      6933.7755      296551.41      298691.82      297916.56     -713.38839     -1581.2148     -463.32971      5616.0472      3597.6382      9213.6854      155073.78      42.634055      42.634055      85.31494           16004 
   3946000   2729.5059      301422.02      6941.1482      300320.52      300964.95      302980.59      47.025215      3839.0358     -1225.3732      5646.1197      3606.5453      9252.665       154863.49      42.614775      42.614775      85.276359          16004 
   3947000   2741.8411      298768.69      6948.5176      299453.76      296885.17      299967.12      701.28681     -440.20567     -549.64016      5671.6357      3562.2001      9233.8358      154961.13      42.623729      42.623729      85.294276          16004 
   3948000   2735.1303      299883.9       6955.8885      298871.98      301406.35      299373.37      2359.0239     -1756.0715     -555.05408      5657.754       3574.496       9232.25        154967.96      42.624355      42.624355      85.295529          16004 
   3949000   2737.8679      303477.1       6963.2546      303450.01      304262.89      302718.41      554.68775     -907.75419     -1008.8013      5663.417       3610.783       9274.2         154741.33      42.603566      42.603566      85.253929          16004 
   3950000   2729.7186      299517.45      6970.613       299760.99      300145.91      298645.46      1491.6568      488.72693     -1783.7426      5646.5598      3596.7594      9243.3191      154905.93      42.618668      42.618668      85.284148          16004 
   3951000   2733.609       298640.69      6977.9837      300098.09      296950.63      298873.34     -1560.2946      2966.1857     -949.24815      5654.6072      3571.1143      9225.7215      154997.51      42.627064      42.627064      85.300951          16004 
   3952000   2738.7221      297792.38      6985.3525      296829.26      298647.55      297900.32      946.68003     -1626.201       112.51443      5665.1839      3543.1698      9208.3537      155089.81      42.635524      42.635524      85.31788           16004 
   3953000   2757.4875      304774.17      6992.723       303895.24      305527.71      304899.56      1241.3615      769.72818      887.16487      5704.001       3580.3465      9284.3475      154683.87      42.598293      42.598293      85.243377          16004 
   3954000   2706.9004      299105.66      7000.0961      299450.8       299804.37      298061.82     -208.37426      2096.464      -2899.7438      5599.3591      3628.9584      9228.3175      154978         42.625276      42.625276      85.297372          16004 
   3955000   2735.888       297557.2       7007.4658      296850.47      298436.94      297384.18     -440.89357     -171.43196     -2680.6345      5659.3214      3553.441       9212.7624      155058.79      42.632681      42.632681      85.312191          16004 
   3956000   2736.794       302656.73      7014.8354      302785.52      302090.81      303093.87      3631.0384     -1447.0653     -2681.3026      5661.1955      3594.0119      9255.2074      154832.22      42.611907      42.611907      85.270619          16004 
   3957000   2732.9458      297784.89      7022.2036      297318.74      298819.53      297216.39     -1705.3771     -1685.4154      284.33965      5653.2352      3560.8029      9214.0381      155051.95      42.632055      42.632055      85.310937          16004 
   3958000   2749.9497      297533.65      7029.5762      298017.68      298050.88      296532.4       1424.5852      2267.1931     -4754.1647      5688.4086      3518.2505      9206.6591      155085.09      42.635092      42.635092      85.317015          16004 
   3959000   2733.2901      304089.62      7036.946       304474.39      303459.6       304334.88     -2642.9395      3674.8761      407.82161      5653.9476      3631.0665      9285.0141      154668.12      42.596847      42.596847      85.240483          16004 
   3960000   2736.0085      298441.18      7044.3199      299374.33      298160.63      297788.59      2727.7406      1897.69       -1516.6306      5659.5707      3568.6322      9228.2029      154967.88      42.624348      42.624348      85.295516          16004 
   3961000   2714.6003      298349.7       7051.6881      298934.53      297159.01      298955.58      80.185365     -1073.3852     -3425.0814      5615.2867      3590.1907      9205.4774      155090.99      42.635632      42.635632      85.318096          16004 
   3962000   2752.9984      302056.73      7059.0633      302271.84      303457.75      300440.6      -514.15379      3374.343      -213.12255      5694.7151      3564.0595      9258.7746      154805.52      42.609457      42.609457      85.265716          16004 
   3963000   2713.2866      301255.19      7066.4395      301351.49      301229.43      301184.64      459.1318       898.02478     -804.58621      5612.5693      3625.6227      9238.192       154913.64      42.619375      42.619375      85.285563          16004 
   3964000   2748.0208      293938.23      7073.8101      294774.76      292990.7       294049.23     -335.82341      840.77431     -1216.2091      5684.4187      3479.7572      9164.176       155310.37      42.655726      42.655726      85.358306          16004 
   3965000   2729.002       300711.63      7081.1781      300916.78      302313.16      298904.94      695.69521      537.99346     -2763.9852      5645.0775      3593.6565      9238.7339      154908.52      42.618905      42.618905      85.284622          16004 
   3966000   2748.778       300811.33      7088.5499      300947.07      301659.63      299827.29      240.33727      220.84439      552.52176      5685.985       3556.7614      9242.7464      154885.74      42.616816      42.616816      85.280443          16004 
   3967000   2731.0299      298652.47      7095.9193      299285.47      298389.38      298282.57      619.01044     -117.17877      980.61441      5649.2722      3577.68        9226.9521      154967.6       42.624322      42.624322      85.295464          16004 
   3968000   2720.916       302144.77      7103.2968      300742.12      302698.01      302994.19      835.66384      1334.2058     -2259.2872      5628.3511      3628.5108      9256.8618      154806.74      42.609569      42.609569      85.265941          16004 
   3969000   2735.884       298929.07      7110.6685      298152.25      299678.97      298955.98      1229.5414     -227.1561       1063.8664      5659.3131      3560.5377      9219.8509      155000.92      42.627377      42.627377      85.301576          16004 
   3970000   2728.6894      296433.41      7118.0448      297074.74      297020.06      295205.42     -3205.0745      2208.1594      702.37618      5644.4308      3545.4073      9189.8381      155162.09      42.642147      42.642147      85.331133          16004 
   3971000   2733.3513      303253.78      7125.4209      305048.82      302415.98      302296.53     -620.65931      483.78178     -28.319353      5654.074       3605.4592      9259.5332      154787.99      42.607848      42.607848      85.262498          16004 
   3972000   2725.2541      300925.01      7132.7984      300901.21      301563.47      300310.35      161.86839     -679.89925     -832.63791      5637.3246      3592.8204      9230.145       154942.5       42.622021      42.622021      85.290858          16004 
   3973000   2706.9312      298199.77      7140.1769      298687.99      298796.17      297115.15     -572.40867     -2184.8414     -1516.6133      5599.4229      3617.2575      9216.6804      155010.63      42.628267      42.628267      85.303358          16004 
   3974000   2721.644       299018.1       7147.5543      299231.84      299484.24      298338.22      2073.8374     -1529.0211     -2991.5857      5629.8569      3587.476       9217.3329      155005.08      42.627758      42.627758      85.302339          16004 
   3975000   2728.2209      300250.81      7154.933       299153.18      300788.71      300810.55     -253.80548      1597.3506     -2239.4441      5643.4616      3580.2809      9223.7425      154970.14      42.624555      42.624555      85.29593           16004 
   3976000   2734.0692      300551.45      7162.3117      300478.94      300389.28      300786.14      1584.0646     -2447.5823      953.36813      5655.5591      3577.6614      9233.2205      154917.71      42.619747      42.619747      85.286309          16004 
   3977000   2717.6974      297747.41      7169.6928      298917.91      296881.68      297442.64     -1904.1592     -2032.9083     -220.04296      5621.6933      3585.8842      9207.5775      155053.92      42.632235      42.632235      85.311298          16004 
   3978000   2729.5103      299593.24      7177.0704      298363.89      299541.94      300873.89      1284.1143      204.78896      926.41404      5646.1288      3583.3885      9229.5173      154934.98      42.621332      42.621332      85.289479          16004 
   3979000   2736.5463      305195.24      7184.4483      304591.73      307023.57      303970.42      1895.4383     -114.62333      1134.0657      5660.6831      3626.5566      9287.2397      154629.08      42.593263      42.593263      85.233311          16004 
   3980000   2746.9333      298609.41      7191.8219      299677.23      297475.33      298675.66     -829.23698      691.98346      323.05817      5682.1691      3524.758       9206.9271      155053.3       42.632179      42.632179      85.311185          16004 
   3981000   2746.8799      297809.95      7199.1937      298986.23      297821.71      296621.93      450.74974     -528.93769      362.21066      5682.0587      3523.2858      9205.3444      155061.07      42.63289       42.63289       85.312609          16004 
   3982000   2728.3304      301700.58      7206.559       302969.51      301186.07      300946.17     -2531.9557      2513.7695     -485.09127      5643.6882      3597.1417      9240.8299      154871.1       42.615473      42.615473      85.277755          16004 
   3983000   2743.6356      300031.43      7213.9322      299046.9       301455.73      299591.67      1222.5087     -764.486       -3897.6503      5675.3478      3561.5042      9236.852       154891.86      42.617377      42.617377      85.281565          16004 
   3984000   2733.0588      297343.76      7221.3017      296725.55      297603.62      297702.12     -683.06265     -2247.7931     -4954.7143      5653.4691      3553.6027      9207.0717      155050.4       42.631912      42.631912      85.310652          16004 
   3985000   2756.4922      299788.77      7228.6668      299487.36      300702.59      299176.37     -1785.3599      1210.7877     -2581.0535      5701.9421      3523.9218      9225.8639      154946.78      42.622414      42.622414      85.291644          16004 
   3986000   2733.8605      300192.11      7236.0357      300235.03      301536.49      298804.82      3575.5987     -2862.0957     -2705.0978      5655.1275      3576.7537      9231.8812      154912.65      42.619283      42.619283      85.28538           16004 
   3987000   2725.7866      299628.97      7243.3759      299736.91      300196.43      298953.56     -1291.6711      809.60889     -3274.3126      5638.4261      3583.9477      9222.3739      154959.47      42.623577      42.623577      85.293972          16004 
   3988000   2733.8103      297371.77      7250.7208      296159.71      298592.64      297362.96     -455.77678      1045.0266     -1441.047       5655.0237      3547.9224      9202.9461      155061.39      42.632919      42.632919      85.312667          16004 
   3989000   2745.8855      301655.84      7258.0632      301437.84      301015.25      302514.44     -733.5731      -1057.0924     -3638.7792      5680.0017      3565.6241      9245.6257      154833.01      42.611979      42.611979      85.270764          16004 
   3990000   2723.5658      298874.76      7265.4083      298186.9       299185.49      299251.91     -1661.8352     -613.51566     -3226.0422      5633.8323      3587.7605      9221.5928      154958.45      42.623484      42.623484      85.293786          16004 
   3991000   2717.1919      295557.02      7272.7565      296029         296111.83      294530.22      1623.5629      2202.5658     -620.25923      5620.6476      3550.6295      9171.2771      155228.62      42.64824       42.64824       85.343325          16004 
   3992000   2713.9752      301398.36      7280.1026      300894.22      300999.03      302301.82      177.3507      -0.62638533    -114.97373      5613.9937      3627.267       9241.2607      154851.46      42.613671      42.613671      85.27415           16004 
   3993000   2745.7121      300722.88      7287.4481      299834.46      302715.69      299618.51      1016.693       895.50096      1844.6075      5679.6431      3546.7619      9226.4049      154928.52      42.620739      42.620739      85.288293          16004 
   3994000   2738.3433      300176.24      7294.7926      300014.3       300345.98      300168.45      1210.6123     -2731.8961      788.11318      5664.4004      3564.8086      9229.2089      154913.35      42.619348      42.619348      85.28551           16004 
   3995000   2722.3352      301173.77      7302.1387      300709.63      301489.06      301322.63     -774.0517       1346.98       -2477.0416      5631.2867      3607.5423      9238.829       154859.99      42.614454      42.614454      85.275717          16004 
   3996000   2728.3303      300767.95      7309.4853      300945.28      300184.87      301173.71     -1736.0364     -89.395893     -489.85739      5643.6879      3588.8065      9232.4944      154890.03      42.617209      42.617209      85.281229          16004 
   3997000   2732.4996      300243.21      7316.8316      300845.49      300258.3       299625.83      1261.5073     -3064.5348     -3147.3815      5652.3123      3579.1629      9231.4753      154892.91      42.617473      42.617473      85.281759          16004 
   3998000   2730.9539      298856.48      7324.1793      299784.03      298341.04      298444.37     -3265.7517      1744.5445     -2275.2085      5649.1149      3555.9827      9205.0976      155032.19      42.630243      42.630243      85.307313          16004 
   3999000   2732.2954      299062.27      7331.5298      299508.14      298190.63      299488.05      717.9628       710.83774     -2492.2279      5651.8899      3562.9731      9214.863       154979.77      42.625438      42.625438      85.297696          16004 
   4000000   2712.2717      305177.29      7338.8835      304402.53      305300         305829.34      1797.3354      2136.3779      2217.0588      5610.4698      3668.5199      9278.9897      154635.27      42.593831      42.593831      85.234448          16004 
Loop time of 7338.88 on 8 procs for 1000000 steps with 16004 atoms

Performance: 5.886 ns/day, 4.077 hours/ns, 136.261 timesteps/s
61.5% CPU use with 1 MPI tasks x 8 OpenMP threads

MPI task timing breakdown:
Section |  min time  |  avg time  |  max time  |%varavg| %total
---------------------------------------------------------------
Pair    | 7067.7     | 7067.7     | 7067.7     |   0.0 | 96.31
Neigh   | 7.1286     | 7.1286     | 7.1286     |   0.0 |  0.10
Comm    | 34.693     | 34.693     | 34.693     |   0.0 |  0.47
Output  | 1.3506     | 1.3506     | 1.3506     |   0.0 |  0.02
Modify  | 201.29     | 201.29     | 201.29     |   0.0 |  2.74
Other   |            | 26.68      |            |       |  0.36

Nlocal:          16004 ave       16004 max       16004 min
Histogram: 1 0 0 0 0 0 0 0 0 0
Nghost:          13613 ave       13613 max       13613 min
Histogram: 1 0 0 0 0 0 0 0 0 0
Neighs:              0 ave           0 max           0 min
Histogram: 1 0 0 0 0 0 0 0 0 0
FullNghs:  1.48312e+06 ave 1.48312e+06 max 1.48312e+06 min
Histogram: 1 0 0 0 0 0 0 0 0 0

Total # of neighbors = 1483118
Ave neighs/atom = 92.671707
Neighbor list builds = 22191
Dangerous builds = 0
Total wall time: 7:23:38
