
atom_style atomic
units metal
boundary p p p
#atom_modify sort 0 0.0
newton on

read_data data.lammps
Reading data file ...
  orthogonal box = (0 0 0) to (43.790145 43.790145 87.58029)
  1 by 1 by 1 MPI processor grid
  reading atoms ...
  16004 atoms
  read_data CPU = 0.042 seconds
# replicate 10 10 20

### interactions

pair_style flare
pair_coeff * * lmp.flare
Reading potential file lmp.flare with DATE: Thu

# compute unc all flare/std/atom L_inv_lmp.flare sparse_desc_lmp.flare
# compute MaxUnc all reduce max c_unc

mass 1 12.011000
mass 2 28.085000

thermo_style custom step temp press cpu pxx pyy pzz pxy pxz pyz ke pe etotal vol lx ly lz atoms    #c_MaxUnc
thermo 1000
timestep 0.0005
restart 100000 restart_*.dat

#################### Equilibrate at P and T_es ##############################
velocity all create $T 41928459 rot yes dist gaussian
velocity all create 3400 41928459 rot yes dist gaussian
fix mom all momentum 1000 linear 1 1 1 angular

fix 1 all npt temp $T $T $(100.0*dt) iso $P $P $(1000.0*dt)
fix 1 all npt temp 3400 $T $(100.0*dt) iso $P $P $(1000.0*dt)
fix 1 all npt temp 3400 3400 $(100.0*dt) iso $P $P $(1000.0*dt)
fix 1 all npt temp 3400 3400 0.050000000000000002776 iso $P $P $(1000.0*dt)
fix 1 all npt temp 3400 3400 0.050000000000000002776 iso 600000 $P $(1000.0*dt)
fix 1 all npt temp 3400 3400 0.050000000000000002776 iso 600000 600000 $(1000.0*dt)
fix 1 all npt temp 3400 3400 0.050000000000000002776 iso 600000 600000 0.5
dump 1 all custom 1000 1equil.bin id type x y z vx vy vz
run   10000 # report performance
Neighbor list info ...
  update every 1 steps, delay 10 steps, check yes
  max neighbors/atom: 2000, page size: 100000
  master list distance cutoff = 6
  ghost atom cutoff = 6
  binsize = 6, bins = 8 8 15
  1 neighbor lists, perpetual/occasional/extra = 1 0 0
  (1) pair flare/kk, perpetual
      attributes: full, newton on, kokkos_device
      pair build: full/bin/kk/device
      stencil: full/bin/3d
      bin: kk/device
Per MPI rank memory allocation (min/avg/max) = 15.9 | 15.9 | 15.9 Mbytes
   Step          Temp          Press           CPU            Pxx            Pyy            Pzz            Pxy            Pxz            Pyz           KinEng         PotEng         TotEng         Volume           Lx             Ly             Lz          Atoms   
         0   3400           64926.693      0              64530.624      64954.416      65295.038     -818.57267      21.423832     -526.49983      7033.0703     -4000.2205      3032.8498      167941.93      43.790145      43.790145      87.58029           16004 
      1000   3447.6818      598918.21      6.6543295      597820.64      599285.52      599648.48      1765.8403     -1544.784       1213.7003      7131.7026      7396.6932      14528.396      142347.36      41.441915      41.441915      82.883829          16004 
      2000   3369.3098      600333.67      13.346026      600756.39      600596.63      599647.99      867.38896     -1060.4581      581.21218      6969.5861      7127.6115      14097.198      142135.93      41.421386      41.421386      82.842772          16004 
      3000   3409.9113      599729.86      20.033579      600450.03      598202.87      600536.68     -1187.7891     -1522.6973      518.26683      7053.5723      7274.7656      14328.338      142130.04      41.420813      41.420813      82.841627          16004 
      4000   3381.6071      601678.38      26.722098      604944.42      601371.54      598719.17      3398.9033     -4751.5523     -2024.6491      6995.0238      7277.1095      14272.133      142049.56      41.412994      41.412994      82.825989          16004 
      5000   3359.7463      600377.12      33.420131      598051.63      601012.1       602067.62      518.47463     -358.94083     -2477.9781      6949.8036      7312.3101      14262.114      142069.87      41.414968      41.414968      82.829935          16004 
      6000   3423.46        599642.78      40.116268      600623.97      599295.24      599009.14      1324.4045      120.52289      2999.9669      7081.5986      7215.7455      14297.344      142100.17      41.417912      41.417912      82.835824          16004 
      7000   3375.6604      598176.1       46.801028      598800.06      597812.04      597916.19      958.33802      2978.3153     -3348.677       6982.7227      7228.7878      14211.51       142084.26      41.416366      41.416366      82.832732          16004 
      8000   3415.2641      603018.79      53.485679      603865.22      604559.31      600631.83      3506.3238      467.14189     -8.6110399      7064.6448      7308.6416      14373.286      141970.52      41.405311      41.405311      82.810623          16004 
      9000   3357.5588      596311.06      60.180052      595634.35      597192.64      596106.18     -3153.5422     -88.02699      -1891.7886      6945.2785      7195.0998      14140.378      142194.11      41.427037      41.427037      82.854073          16004 
     10000   3422.6647      602810.56      66.871085      604482.19      602080.66      601868.82     -112.62246      2777.7478      2565.0395      7079.9535      7278.3728      14358.326      142004.42      41.408608      41.408608      82.817215          16004 
Loop time of 66.8711 on 8 procs for 10000 steps with 16004 atoms

Performance: 6.460 ns/day, 3.715 hours/ns, 149.541 timesteps/s
62.0% CPU use with 1 MPI tasks x 8 OpenMP threads

MPI task timing breakdown:
Section |  min time  |  avg time  |  max time  |%varavg| %total
---------------------------------------------------------------
Pair    | 63.593     | 63.593     | 63.593     |   0.0 | 95.10
Neigh   | 0.10105    | 0.10105    | 0.10105    |   0.0 |  0.15
Comm    | 0.42721    | 0.42721    | 0.42721    |   0.0 |  0.64
Output  | 0.016916   | 0.016916   | 0.016916   |   0.0 |  0.03
Modify  | 2.4491     | 2.4491     | 2.4491     |   0.0 |  3.66
Other   |            | 0.2837     |            |       |  0.42

Nlocal:          16004 ave       16004 max       16004 min
Histogram: 1 0 0 0 0 0 0 0 0 0
Nghost:          13886 ave       13886 max       13886 min
Histogram: 1 0 0 0 0 0 0 0 0 0
Neighs:              0 ave           0 max           0 min
Histogram: 1 0 0 0 0 0 0 0 0 0
FullNghs:  1.62468e+06 ave 1.62468e+06 max 1.62468e+06 min
Histogram: 1 0 0 0 0 0 0 0 0 0

Total # of neighbors = 1624678
Ave neighs/atom = 101.517
Neighbor list builds = 247
Dangerous builds = 0
run  990000
Per MPI rank memory allocation (min/avg/max) = 16.2 | 16.2 | 16.2 Mbytes
   Step          Temp          Press           CPU            Pxx            Pyy            Pzz            Pxy            Pxz            Pyz           KinEng         PotEng         TotEng         Volume           Lx             Ly             Lz          Atoms   
     10000   3422.6647      602810.56      0              604482.19      602080.66      601868.82     -112.62246      2777.7478      2565.0395      7079.9535      7278.3728      14358.326      142004.42      41.408608      41.408608      82.817215          16004 
     11000   3365.5177      598985.95      6.6906389      599037.35      598764.78      599155.72     -1825.4961      620.186        1701.4858      6961.7421      7235.3017      14197.044      142082.64      41.416209      41.416209      82.832417          16004 
     12000   3383.9034      595070.69      13.398603      593018.51      595421.33      596772.23      1126.4605      2382.7415      1687.3884      6999.7737      7284.6141      14284.388      142217.28      41.429287      41.429287      82.858575          16004 
     13000   3382.7876      604604.64      20.090247      603018.45      604850.98      605944.48      2579.4746     -3668.2541     -2472.3759      6997.4657      7277.5009      14274.967      141867.42      41.395287      41.395287      82.790573          16004 
     14000   3416.9771      599237.34      26.774418      599058.87      599667.21      598985.94     -1865.5306      2924.8811      1200.6815      7068.1883      7338.4396      14406.628      142171.88      41.424878      41.424878      82.849756          16004 
     15000   3379.7544      600127.04      33.463037      598587.11      600618         601176.02     -1594.7831      2076.444       677.01222      6991.1913      7228.6082      14219.799      142096.39      41.417544      41.417544      82.835089          16004 
     16000   3389.5303      600876.59      40.155376      599345.1       602023.36      601261.31     -2275.4349     -1230.1304     -928.81978      7011.4132      7334.3013      14345.715      142079.61      41.415914      41.415914      82.831828          16004 
     17000   3394.4925      596819.36      46.847573      596482.12      595816         598159.94      3294.4559     -670.32183     -850.15002      7021.6777      7171.0767      14192.754      142155.93      41.423328      41.423328      82.846657          16004 
     18000   3399.467       604774.34      53.556137      603095.67      604961.26      606266.08     -1879.5285     -1384.7244     -695.78591      7031.9678      7331.257       14363.225      141886.98      41.397189      41.397189      82.794378          16004 
     19000   3368.3519      595764.31      60.248933      595948.43      593561.9       597782.59     -1089.2656     -3281.3679      2750.398       6967.6046      7236.182       14203.787      142187.3       41.426375      41.426375      82.85275           16004 
     20000   3404.1796      597118.63      66.935575      597208.83      596916.36      597230.69     -2112.0977      1344.3161      3408.3218      7041.716       7268.2333      14309.949      142168.37      41.424537      41.424537      82.849074          16004 
     21000   3416.8023      600220.97      73.620712      600242.77      600073.83      600346.31     -2258.4413     -839.15384      744.76888      7067.8268      7250.6326      14318.459      142118.37      41.41968       41.41968       82.83936           16004 
     22000   3382.2629      600543.48      80.312338      599992.56      600889.25      600748.63     -241.19307      6576.054       152.08198      6996.3803      7255.7446      14252.125      142078.45      41.415802      41.415802      82.831604          16004 
     23000   3390.5914      601448.48      87.000577      599040.34      600348.11      604956.99      865.57153      2893.823      -2255.7992      7013.6082      7372.9166      14386.525      142101.44      41.418036      41.418036      82.836071          16004 
     24000   3413.6207      605584.2       93.695184      603928.02      607320.39      605504.18     -1394.116       2925.7769     -6127.0344      7061.2455      7243.6058      14304.851      141853.65      41.393947      41.393947      82.787894          16004 
     25000   3378.4139      594042.77      100.39933      593289.6       594163.61      594675.1      -49.652427     -3696.7813     -4658.5394      6988.4185      7113.5694      14101.988      142213.76      41.428945      41.428945      82.857891          16004 
     26000   3382.0947      604969.56      107.08431      603733.95      606688.58      604486.16     -3591.4952     -4365.1085     -189.86797      6996.0323      7318.4583      14314.491      141847.64      41.393362      41.393362      82.786724          16004 
     27000   3388.0081      602892.01      113.77119      602008.04      604463.09      602204.9      -329.32822      1105.5578      871.92993      7008.2644      7247.1908      14255.455      141954.52      41.403757      41.403757      82.807513          16004 
     28000   3391.653       598859.54      120.46123      601731.97      597591.45      597255.19     -1448.034      -371.98743      1541.5233      7015.8042      7278.348       14294.152      142072.9       41.415262      41.415262      82.830525          16004 
     29000   3362.0737      602546.61      127.13441      603266.56      602882.81      601490.45     -1034.7476      613.99707     -707.17047      6954.6179      7346.1654      14300.783      141974.61      41.405709      41.405709      82.811418          16004 
     30000   3383.4995      595492.13      133.82457      596292.65      594925.26      595258.48     -769.60081     -1393.5352      3129.2384      6998.9382      7240.4155      14239.354      142150.87      41.422837      41.422837      82.845674          16004 
     31000   3391.4987      605968.41      140.52244      605518.02      606471.35      605915.87     -823.49851      539.55258      1815.3462      7015.485       7442.5862      14458.071      141853.7       41.393952      41.393952      82.787905          16004 
     32000   3391.55        593938.88      147.19926      593784.18      594069.05      593963.41     -5331.2422     -1074.5761      2669.0616      7015.591       7243.2955      14258.886      142280.32      41.435407      41.435407      82.870815          16004 
     33000   3333.7808      599757.57      153.87199      596278.44      600544.42      602449.85     -1640.4312     -3313.6607      1587.9351      6896.0927      7253.9745      14150.067      141954.85      41.403788      41.403788      82.807577          16004 
     34000   3426.1362      602014.99      160.53906      603708.69      601665.34      600670.95     -741.26742      2234.6884     -2745.4031      7087.1343      7261.0401      14348.174      141944.94      41.402825      41.402825      82.80565           16004 
     35000   3366.9931      596489.96      167.22415      596451.02      595891.11      597127.76      2103.5297     -891.7515       751.40188      6964.7939      7226.9992      14191.793      142115.56      41.419407      41.419407      82.838814          16004 
     36000   3409.4403      601351.09      173.90906      601985.88      601096.64      600970.76      923.51533      352.90524     -219.57554      7052.598       7251.3807      14303.979      141986.29      41.406845      41.406845      82.81369           16004 
     37000   3355.0307      601317.25      180.60614      599742.53      602860.47      601348.73     -218.80262      1624.1618      2637.9144      6940.0491      7286.9292      14226.978      141969.05      41.405169      41.405169      82.810337          16004 
     38000   3381.549       597596.76      187.29383      597793.93      597049.89      597946.47      2527.1459      845.27155     -3661.5323      6994.9035      7304.4817      14299.385      142127.56      41.420573      41.420573      82.841146          16004 
     39000   3407.2762      602418.94      193.9658       603439.42      600858.55      602958.85     -800.73252      1014.3548     -164.50661      7048.1216      7341.7502      14389.872      142015.33      41.409668      41.409668      82.819336          16004 
     40000   3413.2772      588268.86      200.62918      589373.28      588376.95      587056.34      2500.9959     -702.63164     -615.50943      7060.5349      7092.6016      14153.137      142447.02      41.451583      41.451583      82.903166          16004 
     41000   3371.7881      607251.63      207.30661      608102.81      606334.13      607317.96      934.7083      -821.5036      -3777.0614      6974.7127      7341.0335      14315.746      141740.78      41.382966      41.382966      82.765931          16004 
     42000   3377.4265      597515.35      213.98903      597345.83      596853.7       598346.51     -1255.3058      1264.5044      1300.3819      6986.376       7297.8878      14284.264      142103.83      41.418267      41.418267      82.836534          16004 
     43000   3377.7685      596369.58      220.67128      597178.99      594636.96      597292.79      882.02384     -298.78695      828.37327      6987.0834      7212.4096      14199.493      142110.75      41.41894       41.41894       82.837879          16004 
     44000   3426.404       601586.01      227.36777      602521.22      600050.08      602186.74      1586.7063      2516.3263     -1605.5737      7087.6884      7290.3901      14378.079      141970.89      41.405348      41.405348      82.810696          16004 
     45000   3379.0733      598467.68      234.03979      597901.65      598903.67      598597.73     -5965.9115     -221.97183     -1346.3394      6989.7823      7236.5391      14226.321      142122         41.420033      41.420033      82.840066          16004 
     46000   3409.6206      597340.93      240.70921      597628.43      597931.24      596463.13     -3273.0694      1202.6983     -1471.5647      7052.971       7236.6258      14289.597      142108.51      41.418722      41.418722      82.837445          16004 
     47000   3421.1042      603648.04      247.37504      602907.33      603263.45      604773.34      1017.965       1886.8116     -989.95745      7076.7254      7312.6799      14389.405      141819.64      41.390639      41.390639      82.781277          16004 
     48000   3340.4483      595218.22      254.06289      594267.4       595620.64      595766.62      2454.9722     -1642.6781      2036.321       6909.8848      7181.4834      14091.368      142198.35      41.427449      41.427449      82.854897          16004 
     49000   3400.8975      600910.32      260.7437       599196.1       602827.05      600707.8       1859.6181      4630.6553     -2520.0474      7034.9268      7208.7754      14243.702      142054.05      41.413431      41.413431      82.826861          16004 
     50000   3432.8218      602349.86      267.44227      601396.17      603154.97      602498.43     -635.46282     -2151.8233      540.29657      7100.9639      7190.2385      14291.202      141996.99      41.407885      41.407885      82.815771          16004 
     51000   3397.1094      599163.68      274.12986      599947.92      597857.68      599685.44      2133.0542     -2458.1376      1004.5645      7027.0909      7203.7551      14230.846      142138.13      41.4216        41.4216        82.8432            16004 
     52000   3425.7298      601960.81      280.80616      602931.97      600723.64      602226.83     -1113.7493     -1589.09       -1467.4545      7086.2936      7360.2046      14446.498      142045.24      41.412574      41.412574      82.825148          16004 
     53000   3378.1347      595840.15      287.4809       595730.76      595861.66      595928.03     -682.4544       663.37691      2016.7343      6987.8409      7188.9967      14176.838      142178.47      41.425518      41.425518      82.851036          16004 
     54000   3421.2883      608906.07      294.16091      610525.07      609374.95      606818.18     -4258.2862      141.0895       222.23272      7077.1062      7376.6792      14453.785      141711.48      41.380114      41.380114      82.760228          16004 
     55000   3368.7278      593507.15      300.84115      590638.84      594108.97      595773.62      1524.5218      805.81912      2279.1852      6968.3823      7249.1398      14217.522      142255.62      41.433009      41.433009      82.866019          16004 
     56000   3377.2592      601327.81      307.53085      604224.76      600145.1       599613.58      685.41862      2121.4676     -1067.7329      6986.0299      7287.106       14273.136      142023.79      41.41049       41.41049       82.82098           16004 
     57000   3437.8566      603624.24      314.23348      603955.23      604341.1       602576.4      -41.628006     -1134.9702     -4484.5789      7111.3786      7286.1891      14397.568      141987.56      41.406969      41.406969      82.813937          16004 
     58000   3402.2566      597684.42      320.90977      597038.37      599083.91      596930.97      1596.7436     -1449.0446     -1189.189       7037.7381      7222.9874      14260.726      142122.62      41.420093      41.420093      82.840186          16004 
     59000   3384.4434      603596.15      327.58284      602531.17      604518.87      603738.41      818.36714      3060.2773     -3584.6392      7000.8907      7301.7999      14302.691      141927.65      41.401143      41.401143      82.802287          16004 
     60000   3426.5657      597239.82      334.259        598036.57      595937.24      597745.65     -3994.0453      2558.6982     -2107.3032      7088.0229      7217.0382      14305.061      142163.44      41.424058      41.424058      82.848116          16004 
     61000   3409.8392      600112.45      340.94119      599576.03      600535.44      600225.89      981.82684     -1234.3538      1822.3594      7053.4232      7190.4152      14243.838      142039.96      41.412062      41.412062      82.824123          16004 
     62000   3413.1856      606970.64      347.62809      606132.79      607313.91      607465.21     -1224.1491     -2650.4461     -2468.2783      7060.3453      7357.2483      14417.594      141874.64      41.395988      41.395988      82.791977          16004 
     63000   3429.4952      594539.57      354.33085      593491.44      597215.16      592912.09     -2630.1407      82.006461      1796.7082      7094.0826      7106.39        14200.473      142255.95      41.433041      41.433041      82.866082          16004 
     64000   3348.3898      602757.62      361.00736      602929.2       602283.58      603060.08     -1967.3795     -148.83078     -1803.4205      6926.3121      7258.8579      14185.17       141885.85      41.397079      41.397079      82.794158          16004 
     65000   3407.1763      601511.19      367.67327      602431.35      600445.25      601656.96     -3718.0438     -2692.0547      937.15913      7047.9148      7254.1828      14302.098      142003.51      41.408518      41.408518      82.817037          16004 
     66000   3385.7121      596723.17      374.3439       595775.41      597151.25      597242.86      2838.8301     -1907.4547      3126.3721      7003.5151      7183.2173      14186.732      142097.96      41.417697      41.417697      82.835395          16004 
     67000   3404.7189      606323.02      381.01782      605582.14      606212.35      607174.55      1945.5226     -2755.0285     -2611.1731      7042.8317      7336.2837      14379.115      141793.88      41.388132      41.388132      82.776264          16004 
     68000   3390.0504      596563.29      387.69087      595401.89      598075.88      596212.09     -784.64317      3041.9247     -1235.7019      7012.4892      7239.2909      14251.78       142191.74      41.426807      41.426807      82.853614          16004 
     69000   3371.2039      602329.49      394.38232      604925.6       601062.43      601000.45     -975.3215       3281.7411      2032.6442      6973.5043      7256.6488      14230.153      141943.08      41.402644      41.402644      82.805288          16004 
     70000   3387.0827      597866.92      401.07854      597236.47      598785.3       597578.99      3448.9322     -917.93179     -1073.8041      7006.3502      7275.4325      14281.783      142047.81      41.412824      41.412824      82.825648          16004 
     71000   3416.9304      600072.18      407.7517       596592.69      600369.24      603254.61      1511.8671     -4464.2042     -3876.2492      7068.0917      7278.4408      14346.532      142067.67      41.414754      41.414754      82.829508          16004 
     72000   3388.2123      604259.35      414.42681      601279.9       606717.42      604780.75     -62.484504      3467.5511      42.448116      7008.687       7303.8257      14312.513      141819         41.390576      41.390576      82.781152          16004 
     73000   3389.9138      593668.23      421.10895      593440.68      593261.43      594302.57     -147.11744     -3029.0176     -2654.5713      7012.2066      7146.8115      14159.018      142246.93      41.432166      41.432166      82.864332          16004 
     74000   3441.8561      603486.67      427.78751      604842.52      603700.13      601917.36      2749.95        3267.2033     -1003.406       7119.6518      7346.4146      14466.066      141939.78      41.402323      41.402323      82.804646          16004 
     75000   3403.808       598283.88      434.47151      597241.94      599492.4       598117.31     -241.03092     -1618.4291     -1277.2699      7040.9475      7188.1988      14229.146      142048.76      41.412916      41.412916      82.825832          16004 
     76000   3439.8727      597887.54      441.1681       599131.33      597612.83      596918.46      4480.2363      3940.2543     -4687.7888      7115.549       7266.9865      14382.536      142150.79      41.42283       41.42283       82.84566           16004 
     77000   3395.3335      605345.4       447.84934      604618.57      606625.83      604791.8       1005.694       542.68427     -1141.2848      7023.4175      7323.6634      14347.081      141843.08      41.392919      41.392919      82.785837          16004 
     78000   3414.3327      595131.32      454.52611      595870.46      594778.78      594744.73      1319.9278     -2535.0483      1140.5402      7062.7183      7238.3605      14301.079      142191.24      41.426758      41.426758      82.853516          16004 
     79000   3418.6009      598710.37      461.19652      595962.26      598979.82      601189.04      845.55619     -1136.0895     -1939.7536      7071.5472      7223.3189      14294.866      142105.12      41.418393      41.418393      82.836786          16004 
     80000   3400.0373      604210.24      467.87596      603592.79      604523.27      604514.66      776.81794      246.93577      1003.6821      7033.1476      7314.3826      14347.53       141908.27      41.39926       41.39926       82.798519          16004 
     81000   3414.0327      598392.54      474.55381      596985.82      597491.3       600700.5      -2495.1806     -1381.1006      493.00037      7062.0977      7212.3121      14274.41       142128.46      41.42066       41.42066       82.84132           16004 
     82000   3382.5277      600812.51      481.24468      600758.52      600008.22      601670.8      -1264.7892      1351.2676     -62.054321      6996.928       7273.8013      14270.729      141975.57      41.405803      41.405803      82.811606          16004 
     83000   3382.5975      600592.87      487.93869      599160.4       601762.8       600855.4      -1289.9629      2053.4309      660.05954      6997.0724      7291.934       14289.006      142068.76      41.41486       41.41486       82.82972           16004 
     84000   3380.086       601431.64      494.61346      600103.16      603158.69      601033.06      387.63348      746.20494      3322.5387      6991.8773      7178.2633      14170.141      142016.29      41.409761      41.409761      82.819522          16004 
     85000   3398.4279      608220.77      501.28549      607920.63      608757.3       607984.39     -2879.4176      1704.58        1044.4528      7029.8183      7358.2172      14388.036      141752.01      41.384058      41.384058      82.768117          16004 
     86000   3382.6275      592609.54      507.95907      591822.41      592976.98      593029.24      1940.8778      924.38154     -2201.2096      6997.1345      7192.5593      14189.694      142261.56      41.433586      41.433586      82.867173          16004 
     87000   3407.6445      604424.21      514.63335      604329.16      604403.2       604540.28      1135.3797      288.81061     -480.97303      7048.8834      7359.19        14408.073      141922.73      41.400665      41.400665      82.80133           16004 
     88000   3414.5784      598915.85      521.30372      598703.72      598119.72      599924.12      1816.4433      1856.5361      4829.7375      7063.2266      7185.5432      14248.77       142084.87      41.416425      41.416425      82.832851          16004 
     89000   3409.6963      597765.56      527.97424      597931.8       597821.61      597543.27      703.11246     -3361.4257      2061.0415      7053.1277      7243.658       14296.786      142140.92      41.42187       41.42187       82.843741          16004 
     90000   3393.888       603788.67      534.64697      603997.22      603922.61      603446.18     -661.28412      2430.336       3946.9963      7020.4274      7163.3852      14183.813      141870.16      41.395553      41.395553      82.791105          16004 
     91000   3387.1093      597947.1       541.32109      595466.51      598881.67      599493.13      797.28615      3458.8401     -425.50904      7006.4052      7218.7878      14225.193      142129.13      41.420725      41.420725      82.84145           16004 
     92000   3398.7659      596370.54      547.9852       595949.6       597468.93      595693.09      1793.1203      2210.4758      1715.6246      7030.5175      7216.0775      14246.595      142170.75      41.424768      41.424768      82.849537          16004 
     93000   3400.5287      605046.07      554.6459       602156.56      606044.33      606937.32     -465.73078      656.98899      3177.8532      7034.1641      7408.4056      14442.57       141890.3       41.397512      41.397512      82.795024          16004 
     94000   3381.1533      595814.12      561.30686      596333.78      596032.06      595076.52     -3419.5585     -4537.4289      693.77378      6994.0849      7209.1726      14203.257      142168.38      41.424538      41.424538      82.849076          16004 
     95000   3406.7942      603432.82      567.96535      601004.09      604286.16      605008.2      -3477.3201     -794.7559       618.61492      7047.1245      7358.3619      14405.486      141964.72      41.404748      41.404748      82.809496          16004 
     96000   3423.6306      599483.15      574.62256      600529.18      599784.48      598135.79      4449.8861      1414.3921     -2903.8126      7081.9513      7192.0086      14273.96       142102.12      41.418101      41.418101      82.836203          16004 
     97000   3429.6234      599852.92      581.28846      600425.03      598992.76      600140.95     -4330.6471     -1006.7586      1495.8056      7094.3479      7189.3577      14283.706      142025.9       41.410695      41.410695      82.821389          16004 
     98000   3412.7686      603785.22      587.94828      599417.82      605249.8       606688.05      866.30902      51.039006      1931.5861      7059.4828      7300.2958      14359.779      141907.54      41.399188      41.399188      82.798377          16004 
     99000   3385.2291      591773.92      594.59848      589511.81      593004.76      592805.19     -1793.6781      2353.3802      13.632682      7002.5161      7147.5486      14150.065      142296.44      41.436972      41.436972      82.873945          16004 
    100000   3371.1554      598529.66      601.26183      598359.36      596775.67      600453.94      5685.6214     -2939.9635     -805.43168      6973.4039      7183.1482      14156.552      141996         41.407789      41.407789      82.815577          16004 
    101000   3385.6556      599244.52      607.91498      599299.27      599430.44      599003.86      1912.3702      1342.7764     -1601.5811      7003.3982      7286.8215      14290.22       142023.37      41.410449      41.410449      82.820899          16004 
    102000   3414.014       597844.01      614.57015      598305.11      598648.44      596578.49     -3011.0954     -1932.8807      506.53458      7062.059       7197.7196      14259.779      142123.12      41.420141      41.420141      82.840282          16004 
    103000   3437.9771      602262.39      621.22534      601621.32      601724.69      603441.17     -2382.8355      3229.0162     -818.17738      7111.628       7286.0303      14397.658      142002.3       41.408401      41.408401      82.816801          16004 
    104000   3410.4933      599560.42      627.88043      599221.17      599573.05      599887.03     -184.50951      1783.3203     -700.21573      7054.7763      7271.9178      14326.694      142043.21      41.412377      41.412377      82.824754          16004 
    105000   3390.9536      595781.26      634.53417      595882.81      595569.29      595891.67     -1157.602       32.240253     -2144.6621      7014.3575      7269.4093      14283.767      142158.14      41.423543      41.423543      82.847086          16004 
    106000   3428.7851      608809.88      641.19426      609302.85      608332.78      608794         4017.0251     -374.84717      3903.7303      7092.6138      7394.0042      14486.618      141752.25      41.384082      41.384082      82.768163          16004 
    107000   3392.3384      597285.78      647.85203      596893.78      597977.42      596986.15     -1029.4942      2080.267       384.40722      7017.2219      7193.8636      14211.086      142114.29      41.419283      41.419283      82.838567          16004 
    108000   3375.8806      600936.19      654.50804      600754.15      601228.22      600826.19      760.23027      2179.0517      3836.7754      6983.1781      7239.9825      14223.161      141939.35      41.402282      41.402282      82.804563          16004 
    109000   3398.0032      601261.97      661.16858      602384.36      600487.27      600914.29     -3133.4757      830.85944      2782.3309      7028.9398      7299.089       14328.029      142027.22      41.410823      41.410823      82.821646          16004 
    110000   3386.8678      598333.47      667.82594      597110.99      597555.11      600334.31     -6703.7032      2189.1834     -1909.7617      7005.9057      7195.6896      14201.595      142094.19      41.417331      41.417331      82.834663          16004 
    111000   3438.4501      601699.57      674.48895      603054.7       600185.31      601858.71      2020.6838      601.61337      2946.6655      7112.6062      7225.6719      14338.278      141980.58      41.40629       41.40629       82.812579          16004 
    112000   3393.2885      598169.78      681.15502      598541.33      598102.59      597865.42      1501.7969     -2719.3881     -769.62692      7019.1873      7259.7326      14278.92       142125.1       41.420334      41.420334      82.840668          16004 
    113000   3373.7848      597936.29      687.82241      596807.14      600106.12      596895.6       2319.4765      1918.5669     -74.645062      6978.8429      7220.1276      14198.97       142146.36      41.422399      41.422399      82.844798          16004 
    114000   3430.3676      604048.79      694.49255      603567.04      604318.18      604261.15      1830.5224     -1038.4059      3720.5054      7095.8873      7287.8909      14383.778      141855.58      41.394134      41.394134      82.788269          16004 
    115000   3401.4111      596955.5       701.16889      598362.61      595765.23      596738.68     -2558.5103      3557.7069      3640.6254      7035.9892      7168.5438      14204.533      142155.16      41.423254      41.423254      82.846508          16004 
    116000   3381.282       601490.55      707.84586      601332.16      601569.32      601570.17      606.71529     -87.784312     -2429.5711      6994.3513      7313.069       14307.42       142009.96      41.409145      41.409145      82.81829           16004 
    117000   3378.9727      598723.5       714.52226      599046.39      598509.4       598614.72      1923.4398     -4976.7752     -2036.4563      6989.5742      7219.5496      14209.124      142072.76      41.415249      41.415249      82.830497          16004 
    118000   3404.3502      595297.2       721.20074      594545.22      595059.15      596287.24      2184.383      -232.99411      2606.8248      7042.0689      7219.721       14261.79       142222.01      41.429747      41.429747      82.859493          16004 
    119000   3395.9583      607230.82      727.87794      605681.53      609802.34      606208.58     -1814.9992      1573.5186      2183.2773      7024.7098      7419.0359      14443.746      141810.8       41.389778      41.389778      82.779557          16004 
    120000   3404.413       595136.58      734.55293      595202.96      594012.58      596194.2       2190.7864     -4885.224       606.15383      7042.1988      7169.349       14211.548      142210.38      41.428617      41.428617      82.857234          16004 
    121000   3338.1799      601030.52      741.22982      599336.17      601955.81      601799.58      699.793        413.22842     -78.605541      6905.1923      7250.7064      14155.899      141919.98      41.400398      41.400398      82.800796          16004 
    122000   3433.6197      600400.77      747.90737      599142.9       600593.14      601466.28     -2439.7438     -3090.9576      1761.6319      7102.6145      7253.0353      14355.65       142035.77      41.411654      41.411654      82.823308          16004 
    123000   3401.0436      597818.08      754.58576      595490.97      601393.9       596569.37      1232.8236     -1355.1121      469.97367      7035.229       7230.8693      14266.098      142102.36      41.418125      41.418125      82.83625           16004 
    124000   3337.7855      602751.19      761.26944      601240.65      603713.83      603299.08     -1552.7701      1405.5552      1815.3413      6904.3764      7209.5443      14113.921      141916.65      41.400075      41.400075      82.800149          16004 
    125000   3414.2954      597486.58      767.94825      596513.1       597243.62      598703.02     -1405.3404      2351.1732     -2721.7284      7062.641       7208.0801      14270.721      142178.73      41.425543      41.425543      82.851087          16004 
    126000   3386.5318      602889.42      774.62427      604365.08      606332.96      597970.22     -2350.3395     -5620.798       2323.6952      7005.2106      7264.5058      14269.716      141924.98      41.400884      41.400884      82.801767          16004 
    127000   3404.5613      601350.63      781.30116      600674.39      601068.78      602308.73     -816.8906      -1359.3953     -464.8192       7042.5057      7223.3038      14265.81       141943.55      41.40269       41.40269       82.80538           16004 
    128000   3433.6384      594079.78      787.97979      593688.01      596129.01      592422.33     -1321.6672      867.09615      172.56891      7102.653       7231.3899      14334.043      142292         41.436541      41.436541      82.873083          16004 
    129000   3395.0749      604654.28      794.65689      604502.74      604771.46      604688.64     -4758.2303     -2145.1675     -660.47204      7022.8825      7292.4694      14315.352      141909.24      41.399353      41.399353      82.798707          16004 
    130000   3393.8539      597534.91      801.33869      597911.02      597424.24      597269.47      474.18039      404.76212     -2679.354       7020.3569      7212.761       14233.118      142095.8       41.417487      41.417487      82.834974          16004 
    131000   3366.5908      596975.81      808.0201       597709.59      597248.66      595969.2      -1110.8914     -1237.2829      875.62378      6963.9618      7210.3357      14174.298      142103.26      41.418212      41.418212      82.836423          16004 
    132000   3427.3675      605349.9       814.69827      604663.94      604583.52      606802.23      2057.212      -1488.3281     -85.482388      7089.6815      7359.5276      14449.209      141868.17      41.395359      41.395359      82.790718          16004 
    133000   3421.0265      595939.57      821.38262      595132.13      596043.28      596643.29     -998.15134      187.05026      1429.0836      7076.5647      7125.5598      14202.125      142187.16      41.426362      41.426362      82.852724          16004 
    134000   3428.699       600780.04      828.05971      602050.77      599716.4       600572.95     -358.41175      1218.0854     -5430.2439      7092.4356      7300.1199      14392.555      142074.29      41.415397      41.415397      82.830794          16004 
    135000   3377.2577      604143.38      834.73351      604964.18      603346.36      604119.59     -508.62278      486.95541      1368.9136      6986.0269      7282.1323      14268.159      141897.93      41.398253      41.398253      82.796507          16004 
    136000   3365.1005      597323.25      841.41157      597826.18      597891.5       596252.07     -3676.3795     -1123.4529      1739.0321      6960.879       7189.4508      14150.33       142135.96      41.421389      41.421389      82.842778          16004 
    137000   3385.6597      602939.34      848.08202      603303.06      602464.87      603050.11     -5422.6504     -1735.9043      222.84705      7003.4066      7339.3227      14342.729      141934.24      41.401785      41.401785      82.80357           16004 
    138000   3398.1325      601135.45      854.75368      601361.01      600817.51      601227.83     -3544.6461      875.95174      1108.8702      7029.2073      7251.2019      14280.409      141976.46      41.405889      41.405889      82.811779          16004 
    139000   3438.0789      594743.97      861.42545      595289.22      595714.93      593227.74      4607.0983     -2588.7568      525.85352      7111.8384      7281.0304      14392.869      142263.92      41.433815      41.433815      82.86763           16004 
    140000   3403.9159      604290.26      868.10085      605309.64      604507.78      603053.37      1873.4863      3399.2537     -274.50252      7041.1706      7284.6844      14325.855      141894.6       41.39793       41.39793       82.795859          16004 
    141000   3398.9116      597889.4       874.77306      598267.01      598349.89      597051.3      -939.12835     -676.98786      1274.246       7030.8189      7249.7787      14280.598      142197.62      41.427377      41.427377      82.854755          16004 
    142000   3351.6884      600184.2       881.44727      602447.77      599984.04      598120.8      -79.134087     -3898.7479     -2262.9558      6933.1354      7204.5182      14137.654      141976.6       41.405903      41.405903      82.811806          16004 
    143000   3393.1631      603609.79      888.12371      602219.57      604702.34      603907.45     -2043.3231      3080.8108      30.108654      7018.9279      7343.4313      14362.359      141935.72      41.401928      41.401928      82.803857          16004 
    144000   3392.9452      595673.48      894.7925       596101.83      595492.67      595425.96      1529.7389     -69.983707     -1782.5626      7018.4772      7238.3406      14256.818      142236.5       41.431153      41.431153      82.862307          16004 
    145000   3413.9358      608278.99      901.46734      608625.01      608365.23      607846.72     -4001.9255      2802.6257      616.62174      7061.8973      7352.2555      14414.153      141778.71      41.386657      41.386657      82.773314          16004 
    146000   3408.6214      596270.8       908.13929      595651.96      596691.45      596469         5416.361      -206.84995      299.65427      7050.9041      7206.0573      14256.961      142151.79      41.422926      41.422926      82.845852          16004 
    147000   3345.881       597705.52      914.8068       598504.38      597097.16      597515.01     -1387.3571      2571.5334     -1797.8001      6921.1225      7283.9901      14205.113      142105.76      41.418455      41.418455      82.83691           16004 
    148000   3387.459       602111.12      921.4805       601702.11      600998.12      603633.11      387.34948      2429.5125      1416.1897      7007.1287      7387.919       14395.048      141979.65      41.406199      41.406199      82.812398          16004 
    149000   3364.287       598705.55      928.15089      598020.13      600243.52      597852.99      1368.1916     -138.28491      5470.9294      6959.1962      7230.9604      14190.157      142070.16      41.414996      41.414996      82.829993          16004 
    150000   3423.2624      599065.59      934.82069      599768.17      599576.84      597851.77      3428.0478      1231.4402     -1367.1904      7081.1897      7275.3981      14356.588      142133.61      41.42116       41.42116       82.842321          16004 
    151000   3442.3185      603273.78      941.48507      602324.3       603079.36      604417.7      -1355.2462     -1438.572      -435.11302      7120.6084      7207.4241      14328.032      141919.22      41.400324      41.400324      82.800647          16004 
    152000   3360.3471      598113.22      948.14974      595601.96      599762.58      598975.11      3980.4873      769.39806      551.00277      6951.0463      7227.9552      14179.001      142143.36      41.422108      41.422108      82.844215          16004 
    153000   3389.7045      597756.11      954.81416      596974.65      598868.75      597424.94     -2898.7837     -3099.8487     -639.84616      7011.7737      7249.8771      14261.651      142125.07      41.420331      41.420331      82.840663          16004 
    154000   3374.1297      604719.9       961.48362      604146.94      603566.18      606446.57      2118.4426      1100.5138     -1514.0687      6979.5563      7309.9112      14289.467      141896.77      41.398141      41.398141      82.796283          16004 
    155000   3400.6197      600075.46      968.15008      598947.42      601713.04      599565.91     -98.65575       1682.2761     -3003.9591      7034.3522      7372.513       14406.865      142075.32      41.415497      41.415497      82.830994          16004 
    156000   3416.5082      598493.48      974.81439      598314.27      598153.78      599012.4      -2633.0758     -427.77622      4505.3384      7067.2184      7191.4525      14258.671      142050.05      41.413042      41.413042      82.826083          16004 
    157000   3387.4822      602769.15      981.47762      603336.22      602603.02      602368.22      288.5968      -2571.4068      2816.1903      7007.1766      7438.6527      14445.829      141944.8       41.402811      41.402811      82.805623          16004 
    158000   3403.5809      598159.76      988.1407       598229.53      596962.8       599286.96      817.22596     -626.65034     -990.61799      7040.4776      7188.6782      14229.156      142103.76      41.418261      41.418261      82.836522          16004 
    159000   3471.8028      596496.69      994.80681      595951.69      595768.81      597769.56      91.151891     -1293.8852     -2059.4861      7181.5981      7223.8979      14405.496      142155.29      41.423266      41.423266      82.846532          16004 
    160000   3411.8433      606367.18      1001.4728      606780.08      607042         605279.47     -769.32286     -1451.3802     -1525.2985      7057.5689      7291.9309      14349.5        141800.58      41.388784      41.388784      82.777569          16004 
    161000   3395.9628      596107.27      1008.138       595876.51      595059.81      597385.48      3174.6487      1312.4173      3182.8582      7024.7191      7281.7039      14306.423      142190.35      41.426672      41.426672      82.853343          16004 
    162000   3361.8575      599572.59      1014.8005      598308.19      599630.93      600778.65     -3391.1277     -737.82896     -2212.8805      6954.1706      7224.6186      14178.789      142013.8       41.409519      41.409519      82.819037          16004 
    163000   3368.4822      603162.63      1021.4633      602996.26      601243.9       605247.72     -951.90696      1818.4825     -2520.0662      6967.8743      7376.3583      14344.233      141948.87      41.403207      41.403207      82.806413          16004 
    164000   3425.2662      594858.55      1028.1253      594128.82      594587.13      595859.71      677.49204      1029.6171     -3219.85        7085.3347      7190.3376      14275.672      142221.64      41.42971       41.42971       82.85942           16004 
    165000   3389.1827      602818.33      1034.7893      602139.18      602058         604257.8       2389.1377     -13.822066     -199.19367      7010.6941      7184.5343      14195.228      141897.57      41.398219      41.398219      82.796438          16004 
    166000   3401.405       599994.11      1041.4709      597721.72      601819.02      600441.58      596.55633     -286.5312       236.99005      7035.9766      7243.0596      14279.036      142051.85      41.413216      41.413216      82.826433          16004 
    167000   3369.7008      594237.15      1048.148       594269.41      594834.38      593607.65     -1075.536       1387.5606      237.45936      6970.395       7174.7455      14145.14       142219.72      41.429524      41.429524      82.859048          16004 
    168000   3447.8623      605864.34      1054.8301      608604.87      605077.59      603910.56     -3130.9454     -767.8393      -3217.4383      7132.0759      7294.814       14426.89       141859.92      41.394557      41.394557      82.789114          16004 
    169000   3377.339       598474.95      1061.5074      597621.09      598522.79      599280.97     -1944.2596      2034.3053      2944.4317      6986.1949      7220.5129      14206.708      142019.25      41.410048      41.410048      82.820097          16004 
    170000   3388.3013      601641.16      1068.1753      601610.56      601273.75      602039.16     -4070.8086     -1220.9951     -3538.1375      7008.8711      7276.349       14285.22       142012.92      41.409433      41.409433      82.818867          16004 
    171000   3409.9886      601806.13      1074.8474      604293.99      600321.65      600802.74     -1996.6168     -4366.3846      1642.8336      7053.7323      7217.4554      14271.188      141987.27      41.406941      41.406941      82.813881          16004 
    172000   3416.306       596608.76      1081.5259      596627.55      596997.49      596201.23      1957.3797     -2480.485      -119.35717      7066.8         7195.773       14262.573      142141.15      41.421893      41.421893      82.843785          16004 
    173000   3393.9721      600953.57      1088.201       601621.3       600318.68      600920.73     -985.52718     -192.36183      1057.672       7020.6012      7229.5203      14250.122      141998.17      41.407999      41.407999      82.815999          16004 
    174000   3426.1375      604556.67      1094.878       604648.5       603762.4       605259.1       1932.3847     -1206.1852     -1300.6335      7087.137       7251.4568      14338.594      141925.29      41.400914      41.400914      82.801829          16004 
    175000   3390.9118      591218.88      1101.5603      592362.44      590447.72      590846.47     -104.0208      -2388.8736      2799.3059      7014.2709      7139.4116      14153.683      142400.92      41.447111      41.447111      82.894221          16004 
    176000   3385.7156      602566.71      1108.2417      603504.75      601299.17      602896.22     -1444.638      -3302.0984      21.41313       7003.5224      7290.3867      14293.909      141881.69      41.396674      41.396674      82.793348          16004 
    177000   3358.2486      599270.6       1114.9266      599507.44      598417.35      599887.02     -3264.0441      2182.1449      4060.2674      6946.7055      7297.8414      14244.547      142087.05      41.416637      41.416637      82.833274          16004 
    178000   3371.8553      600285.21      1121.6177      599244.31      600444.94      601166.38      2069.3033     -711.25459      5820.6277      6974.8516      7234.7387      14209.59       142034.09      41.411491      41.411491      82.822982          16004 
    179000   3391.8929      600440.71      1128.2977      601248.12      598806.34      601267.66     -4334.7976      2638.3615      4695.1892      7016.3004      7270.3591      14286.66       142040.4       41.412104      41.412104      82.824208          16004 
    180000   3361.4229      599277.48      1134.9793      597545.34      600440.51      599846.59      2956.9611     -762.67698      639.22398      6953.2716      7250.7498      14204.021      142143.09      41.422082      41.422082      82.844163          16004 
    181000   3403.0692      600718.92      1141.6634      600106.73      601829.76      600220.25     -428.98993      11.332778      144.43922      7039.4192      7248.1899      14287.609      142000.66      41.408242      41.408242      82.816484          16004 
    182000   3419.1833      606949.07      1148.3517      608166.74      607074.04      605606.42     -429.9599       1675.1495     -1307.2269      7072.7519      7228.0203      14300.772      141778.81      41.386667      41.386667      82.773333          16004 
    183000   3388.2738      595555.26      1155.0372      596843.62      597200.33      592621.84      925.19465      1817.9404     -1390.4905      7008.8141      7135.2452      14144.059      142169.53      41.42465       41.42465       82.849299          16004 
    184000   3391.817       602506.41      1161.7295      601133.05      605112.82      601273.35     -164.99296      740.0145       2575.5474      7016.1433      7339.4353      14355.579      141981.1       41.406341      41.406341      82.812681          16004 
    185000   3377.6252      599357.41      1168.411       599458.83      597566.96      601046.44     -1580.1222      1077.0496     -5132.5112      6986.787       7226.1749      14212.962      142065.98      41.41459       41.41459       82.829179          16004 
    186000   3455.4566      598357.53      1175.0999      596374.3       598957.44      599740.86      1473.6602      4181.5335      1600.6071      7147.7851      7268.8455      14416.631      142159.56      41.423681      41.423681      82.847362          16004 
    187000   3366.3579      607387.29      1181.7905      608923.3       606863.86      606374.7      -5125.0558      2526.1314     -1836.5368      6963.4799      7370.5941      14334.074      141789.36      41.387692      41.387692      82.775385          16004 
    188000   3366.9656      593532.59      1188.4788      592574.74      595337.34      592685.69     -2649.5341      265.83957      2874.8163      6964.7369      7129.7941      14094.531      142249.57      41.432422      41.432422      82.864844          16004 
    189000   3424.7416      601254.01      1195.167       600838.17      600664.6       602259.25     -911.21435      793.60387      3092.6215      7084.2496      7268.722       14352.972      141918.14      41.400219      41.400219      82.800438          16004 
    190000   3381.8532      599541.65      1201.8589      600003.2       600215.48      598406.27      1405.8775      81.447339      4816.2884      6995.5328      7135.2052      14130.738      142026.89      41.410791      41.410791      82.821582          16004 
    191000   3389.0944      599442.36      1208.55        598694.65      600532.43      599100.01      1121.5956     -630.69405      829.75319      7010.5116      7223.5936      14234.105      141997.77      41.407961      41.407961      82.815921          16004 
    192000   3379.4883      599877.35      1215.231       601459.05      598704.12      599468.88     -4551.0014     -2276.6219     -3243.5867      6990.6408      7379.2104      14369.851      142003.72      41.408539      41.408539      82.817078          16004 
    193000   3386.0638      595036.32      1221.9169      594766.94      594556.18      595785.85      555.3954       181.75416      2819.864       7004.2426      7154.8255      14159.068      142197.9       41.427405      41.427405      82.85481           16004 
    194000   3412.6269      603678.76      1228.6024      602489.13      602327.18      606219.98     -233.84416      3520.2113     -740.74582      7059.1897      7352.8523      14412.042      141876.24      41.396144      41.396144      82.792288          16004 
    195000   3378.8475      596395.62      1235.2873      596430.85      596029.22      596726.8      -2100.4403     -588.24912      1068.2305      6989.3152      7196.0228      14185.338      142163.55      41.424069      41.424069      82.848138          16004 
    196000   3418.7856      599352.34      1241.9758      598460.57      599787.23      599809.21     -1254.6307     -3707.8589      619.66358      7071.9294      7272.7157      14344.645      142063.42      41.414341      41.414341      82.828682          16004 
    197000   3373.1989      603620.26      1248.6622      604327.42      602968.67      603564.68     -3727.4889      1932.3386     -3684.9887      6977.631       7258.7315      14236.362      141946         41.402928      41.402928      82.805856          16004 
    198000   3438.1103      598852.95      1255.3499      597412.53      600327.53      598818.78     -706.12135     -1185.614      -800.89275      7111.9033      7223.7434      14335.647      142094.2       41.417332      41.417332      82.834664          16004 
    199000   3385.252       598649.72      1262.0271      595904.9       600374.25      599670.01      81.442435      2122.7686      1979.6202      7002.5634      7223.0623      14225.626      142081.1       41.416059      41.416059      82.832118          16004 
    200000   3425.3225      605218.52      1268.7156      604704.93      603106.76      607843.86      69.875304      558.01336     -1019.1432      7085.4512      7301.9747      14387.426      141884.11      41.39691       41.39691       82.793819          16004 
    201000   3385.2857      589470.66      1275.3951      587436.71      590906.63      590068.63      1749.213      -4602.2568     -3278.7368      7002.6331      7119.0184      14121.651      142382.11      41.445287      41.445287      82.890573          16004 
    202000   3386.8633      603134.7       1282.0832      605009.75      602495.03      601899.33      357.87557      812.92659      2423           7005.8965      7295.2393      14301.136      141994.22      41.407615      41.407615      82.81523           16004 
    203000   3400.6293      602164.09      1288.7728      603162.61      602007.24      601322.43      1393.2029     -1798.2217      2179.7157      7034.3721      7121.0864      14155.459      141970.86      41.405345      41.405345      82.810689          16004 
    204000   3407.7553      596046.59      1295.4589      595104.75      595890.32      597144.7       109.08601      2493.792      -1024.9021      7049.1125      7236.6856      14285.798      142189.69      41.426608      41.426608      82.853216          16004 
    205000   3415.1588      600572.56      1302.1398      599583.1       601851.12      600283.47      334.85578     -5310.8948      3207.5326      7064.4271      7304.8753      14369.302      142061.97      41.414201      41.414201      82.828401          16004 
    206000   3407.1895      600939.8       1308.811       601206.06      600000.54      601612.8      -325.17039     -888.67397      454.83184      7047.9423      7201.0212      14248.964      142072.98      41.41527       41.41527       82.830539          16004 
    207000   3402.4339      596081.77      1315.4906      596890.63      597506.74      593847.94     -1465.8304     -3366.0352      137.18237      7038.1051      7275.8701      14313.975      142237.26      41.431227      41.431227      82.862454          16004 
    208000   3389.9814      604556.87      1322.1721      603504.38      604940.39      605225.85      258.46522      622.78726     -2160.6786      7012.3465      7290.6741      14303.021      141843.65      41.392974      41.392974      82.785948          16004 
    209000   3401.8613      598503.58      1328.8544      596706.56      597853.34      600950.84      1476.808       1651.3767      202.25609      7036.9206      7245.3137      14282.234      142118.63      41.419706      41.419706      82.839411          16004 
    210000   3403.1397      601336.1       1335.5393      599583.31      600857.07      603567.91      724.84677     -819.86449      1320.3932      7039.5649      7295.1444      14334.709      141988.73      41.407082      41.407082      82.814164          16004 
    211000   3395.5593      599059.18      1342.222       598727.99      599820.01      598629.56      1949.0177     -1048.5332     -2921.3177      7023.8846      7258.8895      14282.774      142068.8       41.414864      41.414864      82.829727          16004 
    212000   3405.2587      599271.49      1348.9006      598690.07      599672.13      599452.25     -2211.6201      100.55903      130.53671      7043.9482      7292.9818      14336.93       142037.62      41.411834      41.411834      82.823667          16004 
    213000   3364.5368      599195.61      1355.5852      600624.73      599693.2       597268.89      3988.7839      727.31041      737.19942      6959.713       7294.0382      14253.751      142070.3       41.41501       41.41501       82.830019          16004 
    214000   3429.2064      595968.78      1362.2718      594827.69      596590.54      596488.12     -1381.3756      1184.6367      2090.2145      7093.4853      7226.1548      14319.64       142154.99      41.423238      41.423238      82.846475          16004 
    215000   3382.2896      610306.9       1368.9627      611288.93      611018.42      608613.36      5102.5118     -3231.4971     -188.35134      6996.4354      7310.1161      14306.552      141683.02      41.377344      41.377344      82.754687          16004 
    216000   3409.909       594156.41      1375.6539      593616.77      594404.86      594447.6      -407.76445     -4068.4305     -1159.496       7053.5675      7198.0631      14251.631      142276.64      41.43505       41.43505       82.870101          16004 
    217000   3381.0441      601954.18      1382.3392      601968.97      602609.9       601283.66     -711.01296      1059.392       2074.3727      6993.859       7181.8143      14175.673      141959.3       41.404221      41.404221      82.808442          16004 
    218000   3402.7665      599838.8       1389.0245      600752.95      599521.48      599241.96     -3338.4982     -75.091599     -794.14511      7038.793       7270.5415      14309.335      142034.2       41.411502      41.411502      82.823004          16004 
    219000   3371.6163      596480.07      1395.7092      598468.76      595353.18      595618.27      1209.4793      328.20201     -5235.0078      6974.3573      7156.4647      14130.822      142174.01      41.425085      41.425085      82.85017           16004 
    220000   3399.4809      604523.44      1402.3862      605015.17      602277.93      606277.21     -1515.3875     -331.83545      1848.6232      7031.9965      7287.5901      14319.587      141902.52      41.3987        41.3987        82.7974            16004 
    221000   3374.1221      599631.99      1409.0749      598888.62      599979.97      600027.4      -135.54449      2146.9268      2185.8894      6979.5407      7311.5264      14291.067      142050.85      41.41312       41.41312       82.826239          16004 
    222000   3380.8141      598080.2       1415.7654      599181.83      597363.45      597695.33     -275.18649      2073.1696      907.73335      6993.3834      7208.936       14202.319      142078.18      41.415775      41.415775      82.83155           16004 
    223000   3412.0383      601982.61      1422.45        600515.24      602168.62      603263.97      86.627713      417.6586      -20.729891      7057.9722      7287.5336      14345.506      142029.28      41.411024      41.411024      82.822047          16004 
    224000   3420.1129      602705.72      1429.1344      602236.51      602810.32      603070.34     -2213.2645      368.36526      532.71724      7074.675       7214.083       14288.758      141963.02      41.404583      41.404583      82.809166          16004 
    225000   3438.4015      600009.49      1435.8162      597125.47      601823.16      601079.83      3615.2265      1515.5555     -2615.5711      7112.5059      7252.2517      14364.758      142049.93      41.41303       41.41303       82.826061          16004 
    226000   3405.656       599336.15      1442.5         598965.27      600884.18      598159         312.08866      1623.7032     -1882.3313      7044.77        7219.802       14264.572      142084.63      41.416402      41.416402      82.832805          16004 
    227000   3402.8928      600295.01      1449.1877      602180.94      600567.5       598136.58     -1791.1438      1187.71        3809.2696      7039.0542      7291.3384      14330.393      142032.51      41.411337      41.411337      82.822675          16004 
    228000   3390.2019      601404.25      1455.8727      600234.45      603517.7       600460.6      -1681.3134     -1145.5734      3324.7315      7012.8025      7284.0455      14296.848      141985.73      41.40679       41.40679       82.81358           16004 
    229000   3413.2717      592275.19      1462.5596      590423.31      592312.55      594089.71     -2103.3073      1339.5813     -838.18571      7060.5235      7204.5759      14265.099      142350.16      41.442186      41.442186      82.884372          16004 
    230000   3400.0686      602504.71      1469.2414      602605.33      602923.78      601985.03      2039.5046      2423.8121     -1636.3555      7033.2122      7267.2938      14300.506      141952.29      41.403539      41.403539      82.807078          16004 
    231000   3403.6031      598318.27      1475.9208      596148.61      595656.97      603149.25      2573.1757      581.2432      -150.72855      7040.5236      7207.2629      14247.786      142092.76      41.417192      41.417192      82.834385          16004 
    232000   3431.208       601851.81      1482.6028      599454.21      603452.93      602648.29     -188.96826      31.840417     -379.9614       7097.6257      7213.8021      14311.428      142013.46      41.409485      41.409485      82.818971          16004 
    233000   3373.0635      598216.94      1489.2856      598380.2       599293.36      596977.25     -3087.6995     -2014.0664     -4388.8958      6977.3509      7156.3825      14133.733      142090.69      41.416991      41.416991      82.833981          16004 
    234000   3394.5769      603636.3       1495.971       602165.43      603035.5       605707.96      3389.259       2412.5705     -98.905432      7021.8525      7284.5984      14306.451      141987.92      41.407003      41.407003      82.814006          16004 
    235000   3410.2635      600903.99      1502.6619      600099.31      599100.9       603511.77      2658.9643      796.48625     -5888.0615      7054.3008      7115.3567      14169.658      141973.42      41.405594      41.405594      82.811188          16004 
    236000   3385.8527      597224.57      1509.3525      596814.12      598237.82      596621.76     -889.95406      252.0876       3485.2431      7003.806       7230.8506      14234.657      142170.25      41.42472       41.42472       82.849439          16004 
    237000   3340.7511      604904.11      1516.0413      602872.44      606296.77      605543.11      1113.2794      1783.9936     -2183.5926      6910.5111      7264.5061      14175.017      141795.03      41.388244      41.388244      82.776489          16004 
    238000   3400.7327      595058.44      1522.7201      594972.04      594244.49      595958.78      1730.9058      1542.5608      933.87781      7034.5859      7183.7549      14218.341      142315.02      41.438776      41.438776      82.877552          16004 
    239000   3396.8622      601563.35      1529.4016      599215.11      602144.18      603330.78      987.19239      2128.598      -2460.7106      7026.5796      7216.7658      14243.345      142050.15      41.413051      41.413051      82.826103          16004 
    240000   3417.8452      603477.98      1536.0896      603775.62      604049.22      602609.09     -4172.6905     -6248.8576      2498.5849      7069.984       7273.8101      14343.794      141962.27      41.40451       41.40451       82.80902           16004 
    241000   3382.5192      594545.44      1542.7737      595163.85      592559.16      595913.32     -2563.8765     -223.84617      1137.2131      6996.9103      7036.9847      14033.895      142141.58      41.421935      41.421935      82.843869          16004 
    242000   3409.7524      602347.08      1549.4627      601126.83      603977.34      601937.08     -172.74015     -1120.1079      781.88365      7053.2437      7284.8158      14338.06       141931.63      41.401531      41.401531      82.803062          16004 
    243000   3419.5825      597301.47      1556.1403      597473.98      595621.92      598808.52     -722.503        763.4371      -1262.4689      7073.5777      7199.3909      14272.969      142162.47      41.423963      41.423963      82.847927          16004 
    244000   3375.0097      599614.64      1562.8168      600305.48      599706.1       598832.35     -3733.3262     -2756.9461      290.73867      6981.3767      7212.415       14193.792      142047.02      41.412748      41.412748      82.825495          16004 
    245000   3396.1172      604913.45      1569.4969      602608.58      607357.39      604774.39      902.18885     -911.40855     -1057.706       7025.0385      7337.5986      14362.637      141895.01      41.39797       41.39797       82.79594           16004 
    246000   3384.3392      596178.39      1576.1769      596608.86      596657.82      595268.5      -4688.9176     -2973.975      -1057.4443      7000.6753      7232.4532      14233.128      142187.24      41.42637       41.42637       82.852739          16004 
    247000   3410.3958      601490.88      1582.8608      601528.39      602191.88      600752.35      3057.0012      1460.0063      2432.9617      7054.5745      7247.0136      14301.588      141983.09      41.406534      41.406534      82.813068          16004 
    248000   3407.7219      597402.66      1589.5474      598074.17      597833.3       596300.51     -4189.0883     -557.52475      3896.7812      7049.0435      7141.9841      14191.028      142172.61      41.424949      41.424949      82.849897          16004 
    249000   3409.8861      601689.19      1596.2364      602749.94      601350.27      600967.35      3512.0924      8.5071731      3235.0518      7053.5201      7261.2359      14314.756      142004.64      41.408628      41.408628      82.817257          16004 
    250000   3370.5158      606789.71      1602.9187      604979.95      607429.14      607960.05     -3902.0345     -3280.2359     -648.69525      6972.0807      7368.1181      14340.199      141762.73      41.385102      41.385102      82.770203          16004 
    251000   3400.2733      596553.17      1609.6         595443.74      599254.36      594961.41      3022.392      -3396.5175      3571.5993      7033.6358      7161.8552      14195.491      142170.86      41.424779      41.424779      82.849559          16004 
    252000   3417.693       601038.22      1616.2849      601233         600262.5       601619.16      121.01278      163.88961     -942.88917      7069.6693      7263.8253      14333.495      142048.7       41.412911      41.412911      82.825822          16004 
    253000   3395.6112      600031.84      1622.9677      600627.48      599413.46      600054.58      3199.3313      308.65605     -1059.4367      7023.992       7209.7242      14233.716      142116.84      41.419532      41.419532      82.839063          16004 
    254000   3412.638       599019.14      1629.6549      599963.74      598897.18      598196.5       1665.691      -625.84603      3217.1442      7059.2126      7191.4746      14250.687      142069.54      41.414936      41.414936      82.829872          16004 
    255000   3421.9869      604840.82      1636.3432      606144.04      605786.71      602591.71     -1319.7409     -605.83178     -2312.1894      7078.5513      7296.4046      14374.956      141816.25      41.390309      41.390309      82.780618          16004 
    256000   3421.5824      593418.57      1643.0276      593222.34      592651.66      594381.69     -4826.9051      322.19187      3894.7405      7077.7145      7170.2484      14247.963      142329.4       41.440171      41.440171      82.880343          16004 
    257000   3393.2592      602034.9       1649.7042      602408.96      602601.65      601094.09     -276.58237      521.81277     -869.25131      7019.1267      7217.1467      14236.273      141955.28      41.40383       41.40383       82.807661          16004 
    258000   3417.1147      600551.42      1656.3792      600088.85      601390.96      600174.46      3217.8165     -2924.4669      1225.5863      7068.4729      7223.7855      14292.258      142051.54      41.413187      41.413187      82.826374          16004 
    259000   3353.5883      597277.99      1663.0608      597383.37      598030.87      596419.74     -310.71801     -1393.7017      1281.6672      6937.0654      7292.4419      14229.507      142215.1       41.429075      41.429075      82.85815           16004 
    260000   3407.2251      605411.07      1669.7438      604939.18      605789.8       605504.22     -2517.4106     -604.94154     -2053.6258      7048.0158      7347.641       14395.657      141840.56      41.392674      41.392674      82.785348          16004 
    261000   3431.5878      595620.32      1676.4335      596864.39      594329.63      595666.94     -2734.4583      3171.0899      1740.8514      7098.4113      7127.1929      14225.604      142179.35      41.425603      41.425603      82.851206          16004 
    262000   3418.451       598516.04      1683.1138      598845.36      598539.38      598163.39     -795.50922     -2047.676       4030.255       7071.2372      7250.9887      14322.226      142107.18      41.418593      41.418593      82.837186          16004 
    263000   3372.4236      601574.55      1689.7819      600052.19      602644.94      602026.53     -2185.4841      2336.0296     -2446.3523      6976.0272      7236.6622      14212.689      141955.2       41.403823      41.403823      82.807646          16004 
    264000   3410.9232      596788.54      1696.4449      597270.1       596728.69      596366.84      2242.6014      2415.7115     -626.69552      7055.6655      7187.5739      14243.239      142206.71      41.428261      41.428261      82.856521          16004 
    265000   3374.1325      602859.13      1703.1146      604822.21      603990.66      599764.53      966.67204     -368.09133      1664.7809      6979.5621      7312.8556      14292.418      141951.61      41.403473      41.403473      82.806946          16004 
    266000   3389.7405      602343.56      1709.7869      602874.82      601394.43      602761.43     -1813.4862      961.10981     -373.2443       7011.8481      7307.502       14319.35       141957.15      41.404012      41.404012      82.808025          16004 
    267000   3412.5338      595092.72      1716.4595      596054.69      594682.96      594540.5      -2840.3696     -4904.7525     -2238.0058      7058.9971      7211.1873      14270.184      142248.18      41.432287      41.432287      82.864574          16004 
    268000   3375.6505      602804.07      1723.1395      604671.68      600856.84      602883.67      1711.9998      497.36865      2960.0576      6982.7022      7359.2586      14341.961      141949.84      41.403301      41.403301      82.806603          16004 
    269000   3414.0145      600523.07      1729.8109      602151.21      598942.01      600476        -3105.8647      5376.2873      641.94443      7062.06        7175.0438      14237.104      141995.81      41.407771      41.407771      82.815541          16004 
    270000   3436.7071      598461.46      1736.4817      597972.93      597971.02      599440.43     -2050.5849     -356.13615      1417.596       7109.0008      7309.8933      14418.894      142165.82      41.424289      41.424289      82.848578          16004 
    271000   3387.0139      602154.83      1743.1476      603004.7       601441.19      602018.58     -2139.699       5497.2827      753.6871       7006.208       7233.8676      14240.076      141943.11      41.402647      41.402647      82.805294          16004 
    272000   3411.276       603485.55      1749.8244      604354.31      601945.88      604156.45      3213.4536      1511.0519     -1144.3576      7056.3953      7290.1622      14346.558      141943.66      41.4027        41.4027        82.8054            16004 
    273000   3426.5307      596110.34      1756.4977      595453.34      595024.07      597853.62      1377.2805     -214.60858      1224.32        7087.9505      7160.0988      14248.049      142248.17      41.432286      41.432286      82.864572          16004 
    274000   3419.5192      602705.41      1763.1779      602454.21      601087.57      604574.46     -1795.7233      3689.36       -4001.9171      7073.4468      7348.2051      14421.652      142001.53      41.408326      41.408326      82.816652          16004 
    275000   3378.0713      598841.53      1769.8541      599376.84      599895.78      597251.98      2878.8737     -2700.9064      1141.188       6987.7096      7216.2216      14203.931      142096.74      41.417578      41.417578      82.835157          16004 
    276000   3413.8029      598308.07      1776.5249      598456.65      600608.07      595859.5       2597.502      -5491.9807     -1531.8954      7061.6224      7240.429       14302.051      142194.36      41.427061      41.427061      82.854122          16004 
    277000   3421.5153      611590.6       1783.1921      612355.28      610964.94      611451.58     -1740.9651      2310.6745      1979.446       7077.5758      7303.6666      14381.242      141587.88      41.36808       41.36808       82.73616           16004 
    278000   3404.2181      594902.02      1789.8515      595727.42      596215.9       592762.75     -2125.6517      2672.0303     -2129.3003      7041.7956      7189.2886      14231.084      142277.88      41.43517       41.43517       82.87034           16004 
    279000   3405.3587      602437.07      1796.515       602232.58      603337.43      601741.2      -3838.6164     -812.84718     -3027.538       7044.1552      7204.2358      14248.391      141972.81      41.405534      41.405534      82.811069          16004 
    280000   3425.6501      601646.3       1803.1837      601598.21      601047.83      602292.87      151.286       -1742.6188     -2709.4563      7086.1288      7290.9009      14377.03       141984.12      41.406634      41.406634      82.813267          16004 
    281000   3394.5357      597722.87      1809.8536      597807.93      598218.65      597142.02     -2335.6672     -768.52248     -3276.9621      7021.7672      7156.3455      14178.113      142133.89      41.421188      41.421188      82.842376          16004 
    282000   3392.4651      601414.81      1816.518       601522.64      600836.74      601885.06     -2319.314      -495.51505      4618.276       7017.4841      7205.8545      14223.339      142005.2       41.408683      41.408683      82.817367          16004 
    283000   3421.5835      603586.65      1823.176       602595.58      605115         603049.36      2064.2522     -2881.5095     -799.38444      7077.7169      7245.7859      14323.503      141895.48      41.398015      41.398015      82.79603           16004 
    284000   3405.7289      597113.23      1829.8329      597986.42      598032.53      595320.76     -2123.0318      3932.6979     -2333.3684      7044.9208      7266.1512      14311.072      142174.51      41.425134      41.425134      82.850267          16004 
    285000   3388.8639      600765.41      1836.5038      599533.33      602030.52      600732.37      1275.068      -1401.5312      1613.2217      7010.0348      7256.8225      14266.857      142011.13      41.40926       41.40926       82.818519          16004 
    286000   3396.3443      599699.14      1843.1711      601443.34      597875.27      599778.81     -2584.6297     -2236.599       984.8885       7025.5083      7338.1297      14363.638      142069.92      41.414973      41.414973      82.829946          16004 
[...]
   3930000   3618.94        600400.04      7030.3534      602663.02      596965.85      601571.26     -243.15477      1887.9917     -239.04512      7485.9586      12670.003      20155.962      141209.74      41.460199      41.460199      82.148925          16004 
   3931000   3616.0001      596995.73      7037.9125      597930.89      595068.98      597987.32      966.98324     -2168.5034      2076.8321      7479.8774      12636.861      20116.738      141312.93      41.470296      41.470296      82.168929          16004 
   3932000   3607.0027      602360.5       7045.4645      601381.33      600530.74      605169.42      6978.8805     -2692.3196     -2101.8581      7461.2657      12702.622      20163.887      141184.92      41.45777       41.45777       82.144112          16004 
   3933000   3576.8412      595419.33      7053.0195      593726.19      596226.31      596305.51     -272.07859     -2279.3231     -4069.1994      7398.8752      12731.349      20130.224      141274.8       41.466566      41.466566      82.16154           16004 
   3934000   3599.2342      597098.06      7060.5765      595283.27      591537.9       604473         4413.6071     -207.61213     -1062.291       7445.1963      12649.416      20094.613      141368.99      41.475779      41.475779      82.179794          16004 
   3935000   3606.9603      595402.97      7068.1241      594399.3       595406.92      596402.7       1174.9591      4040.6353     -4023.9985      7461.1782      12621.782      20082.96       141395.81      41.478402      41.478402      82.184991          16004 
   3936000   3603.9179      604733.41      7075.6816      604175.54      605234.11      604790.58     -3091.4239     -4744.007      -2790.3959      7454.8848      12789.258      20244.142      140966.54      41.436384      41.436384      82.101736          16004 
   3937000   3598.1026      601013.83      7083.2265      599624.96      599579.76      603836.78     -189.69297     -2579.2572     -1324.7736      7442.8555      12720.866      20163.722      141179.64      41.457253      41.457253      82.143087          16004 
   3938000   3608.5371      593773.18      7090.7831      594302.98      591566.62      595449.95     -2777.2657      704.97273     -3475.0551      7464.4398      12625.508      20089.947      141377.39      41.476601      41.476601      82.181422          16004 
   3939000   3618.0764      599568.3       7098.3432      598987.27      597375.67      602341.98     -1714.8629      1620.5676     -3427.5909      7484.1722      12691.258      20175.43       141148.62      41.454217      41.454217      82.137071          16004 
   3940000   3592.6073      605674.8       7105.9032      605733.82      605706.32      605584.26     -1105.308      -5372.7304      138.4941       7431.4882      12824.511      20255.999      140935.25      41.433318      41.433318      82.095661          16004 
   3941000   3599.6206      595292.58      7113.4651      594536.55      596963.53      594377.65      985.81349     -54.338777     -105.27542      7445.9956      12644.474      20090.47       141377.1       41.476572      41.476572      82.181366          16004 
   3942000   3630.4414      592242.95      7121.0432      591088.82      594694.94      590945.09      1856.2524      6696.1344     -2380.1325      7509.7499      12533.816      20043.565      141503.54      41.488934      41.488934      82.205858          16004 
   3943000   3615.8048      606522.14      7128.6062      604938.62      606591.3       608036.49      1027.3149     -381.50365      3278.9049      7479.4734      12742.935      20222.408      141024.68      41.44208       41.44208       82.113023          16004 
   3944000   3590.9424      603288.39      7136.1754      599957.08      607424.83      602483.27     -93.078002     -1455.2486     -3060.8354      7428.0443      12758.124      20186.168      141120.34      41.451448      41.451448      82.131585          16004 
   3945000   3612.8548      595070.77      7143.7406      591327.5       595145.48      598739.32      677.38122      238.70672     -909.02786      7473.3711      12640.429      20113.8        141315.69      41.470566      41.470566      82.169465          16004 
   3946000   3598.343       606106.41      7151.3047      604846.09      605516.39      607956.74      1378.2856      1556.5738     -1771.9068      7443.3528      12759.904      20203.257      141076.28      41.447134      41.447134      82.123037          16004 
   3947000   3608.4876      605428.22      7158.8882      605987.76      605090.52      605206.36     -6227.9108      982.12503     -7370.2184      7464.3374      12766.835      20231.172      141002.8       41.439936      41.439936      82.108775          16004 
   3948000   3595.6417      593594.63      7166.4478      589007.85      595451.92      596324.12      1687.1411     -162.44458      913.19217      7437.765       12597.798      20035.563      141523.17      41.490852      41.490852      82.209659          16004 
   3949000   3603.9561      599068.36      7174.0191      599219.94      595444.11      602541.04     -965.88524      2055.9703     -1022.7888      7454.9638      12672.32       20127.283      141276.81      41.466763      41.466763      82.161929          16004 
   3950000   3601.5806      602206.67      7181.5955      602252.66      602592.21      601775.15     -3301.2202      2123.0874     -649.77512      7450.05        12729.99       20180.04       141132.97      41.452684      41.452684      82.134034          16004 
   3951000   3611.2272      593506         7189.1671      593520.1       592023.58      594974.33      290.52303      3613.6581      1892.5035      7470.0044      12556.721      20026.725      141541.86      41.492678      41.492678      82.213277          16004 
   3952000   3612.984       601863.39      7196.735       600027.96      603497.19      602065.01     -231.25462      2257.9086      2893.3249      7473.6384      12682.32       20155.958      141194.89      41.458745      41.458745      82.146044          16004 
   3953000   3614.4841      600382.75      7204.2986      598095.91      601774.54      601277.79     -2622.5808     -202.35707      584.2585       7476.7414      12653.72       20130.461      141262.76      41.465388      41.465388      82.159205          16004 
   3954000   3605.1204      599237.79      7211.8579      597870.79      597757.08      602085.48     -2956.8091     -3020.6132     -91.61074       7457.3722      12692.88       20150.253      141207.01      41.459932      41.459932      82.148396          16004 
   3955000   3624.8399      607933.37      7219.4236      608702.76      608617.25      606480.11      4121.92        3119.796      -3254.1433      7498.1629      12737.692      20235.855      140975.25      41.437237      41.437237      82.103428          16004 
   3956000   3609.7233      594711.56      7226.9972      591918.72      596853.84      595362.12     -4228.001       1538.8354      2331.2429      7466.8936      12587.999      20054.893      141456.95      41.48438       41.48438       82.196835          16004 
   3957000   3614.3456      597984.49      7234.5619      596511.61      599864.52      597577.33     -590.76059      2103.3491      1649.1253      7476.4549      12629.964      20106.419      141318.91      41.470881      41.470881      82.170088          16004 
   3958000   3623.5573      600183.31      7242.1293      598085.06      601990.57      600474.31      4390.303      -5685.6965     -3123.9939      7495.5098      12668.737      20164.246      141163.3       41.455654      41.455654      82.139918          16004 
   3959000   3601.1141      602532.35      7249.7008      600983.47      600791.05      605822.53      1727.8696     -2140.7593      924.49709      7449.0849      12702.881      20151.965      141195.68      41.458823      41.458823      82.146198          16004 
   3960000   3578.9237      594969.32      7257.2749      596081.55      592817.51      596008.91     -656.54083      787.76915      5487.1389      7403.183       12658.515      20061.698      141436.56      41.482386      41.482386      82.192885          16004 
   3961000   3620.4176      599750.31      7264.8417      600062.49      599661.55      599526.88     -5473.3523     -1411.49       -1712.1196      7489.0151      12659.833      20148.848      141203.8       41.459618      41.459618      82.147773          16004 
   3962000   3602.5398      610764.97      7272.4143      611055.57      611032.84      610206.49     -1180.2462     -1126.702      -5994.2659      7452.034       12789.179      20241.213      140955.22      41.435274      41.435274      82.099538          16004 
   3963000   3589.3024      596664.64      7279.934       595645.98      598928.58      595419.36      424.51643     -299.06982     -59.225841      7424.6519      12673.867      20098.519      141330.49      41.472014      41.472014      82.172334          16004 
   3964000   3606.0187      598904.48      7287.3969      593348.55      600693.42      602671.47      2663.4961     -192.61755      8333.5479      7459.2302      12676.628      20135.858      141228.25      41.462011      41.462011      82.152514          16004 
   3965000   3586.6998      606580.36      7294.8667      605233.11      608187.56      606320.42      263.37794     -5066.9932     -1995.1691      7419.2683      12805.627      20224.895      140991.2       41.4388        41.4388        82.106524          16004 
   3966000   3594.3556      603169.59      7302.3384      604816.59      598476.57      606215.63      6068.7794      3741.6275     -996.56761      7435.1045      12745.717      20180.822      141106.96      41.450138      41.450138      82.128989          16004 
   3967000   3597.7039      599824.67      7309.8139      599014.64      599384.33      601075.03      1725.0085      1640.3937      2214.1652      7442.0307      12712.569      20154.6        141176.93      41.456988      41.456988      82.142563          16004 
   3968000   3603.5203      596957.73      7317.2816      600632.47      594856.14      595384.58      651.23597      299.10553     -2798.7568      7454.0623      12683.255      20137.317      141223.11      41.461508      41.461508      82.151518          16004 
   3969000   3596.7484      604504.66      7324.7558      604123.61      602297.16      607093.22      3445.0337     -3651.9148      1394.1058      7440.0543      12795.831      20235.885      140960.35      41.435778      41.435778      82.100536          16004 
   3970000   3573.5786      594818.97      7332.2134      595405.54      593961.37      595090.01     -1873.6318      501.68663     -2537.1277      7392.1263      12687.069      20079.195      141377.45      41.476606      41.476606      82.181433          16004 
   3971000   3590.0708      598406.37      7339.6781      599209.62      601049.13      594960.35      683.50648      2112.6403      1649.033       7426.2413      12726.309      20152.55       141179.75      41.457264      41.457264      82.143109          16004 
   3972000   3565.5879      604466.21      7347.1451      604905.82      604850.83      603641.99      1131.1273     -163.72845      5627.9864      7375.5973      12867.725      20243.322      140936.16      41.433407      41.433407      82.095838          16004 
   3973000   3582.2708      597616.99      7354.6203      595680.93      597673.99      599496.07      414.35005     -2739.6904     -1124.8002      7410.1065      12724.703      20134.81       141223.83      41.461579      41.461579      82.151658          16004 
   3974000   3585.1882      597152.78      7362.0895      598567.02      595278.22      597613.11      2872.538       2939.6681     -2360.9394      7416.1414      12689.774      20105.915      141295.86      41.468626      41.468626      82.16562           16004 
   3975000   3625.5481      605866.22      7369.5557      605740.34      605008.35      606849.97     -2078.768      -3226.4232      2146.2959      7499.6278      12703.454      20203.082      141035.96      41.443184      41.443184      82.115211          16004 
   3976000   3572.6917      596258.9       7377.0354      596817.5       594185.2       597773.99      857.09189     -5359.5494      1889.4668      7390.2919      12660.246      20050.538      141442.23      41.48294       41.48294       82.193984          16004 
   3977000   3565.9077      600165.71      7384.5207      597206.52      600407.55      602883.05     -1432.4166     -90.354799      2035.6242      7376.2587      12727.266      20103.524      141298.22      41.468857      41.468857      82.16608           16004 
   3978000   3596.5616      596045.97      7392.0255      594173.24      592625.56      601339.11     -3045.0099     -1552.4098     -1360.3384      7439.668       12684.693      20124.361      141241.95      41.463352      41.463352      82.155171          16004 
   3979000   3582.4609      597833.06      7399.5307      600259.58      597144.55      596095.07      445.56716     -812.24785      3490.0142      7410.4998      12703.741      20114.241      141266.98      41.465801      41.465801      82.160024          16004 
   3980000   3577.1051      602711.02      7407.0214      605135.45      597377.48      605620.13     -2426.7566      1163.7842      7232.6357      7399.4211      12788.272      20187.693      141069.75      41.446494      41.446494      82.121769          16004 
   3981000   3556.8228      601617.91      7414.4959      601355.15      602448.04      601050.53     -21.417795     -1105.9843     -614.45617      7357.4661      12780.397      20137.863      141200.08      41.459254      41.459254      82.147051          16004 
   3982000   3553.103       599584.51      7421.9851      599190.02      598327.77      601235.73     -3075.0603      2868.842      -981.70086      7349.7715      12774.332      20124.103      141235.16      41.462687      41.462687      82.153853          16004 
   3983000   3567.7321      598698.73      7429.4898      596208.49      600132.1       599755.6      -223.98875      2474.3552     -2910.4372      7380.0326      12745.909      20125.941      141228.25      41.462011      41.462011      82.152514          16004 
   3984000   3586.479       606105.88      7436.9899      604586.31      604041.07      609690.27     -1630.6936     -3068.474       6373.912       7418.8115      12805.992      20224.804      140961.33      41.435873      41.435873      82.100725          16004 
   3985000   3584.4855      599848.04      7444.4832      601672.03      598158.02      599714.06     -591.95036     -73.719404     -2487.6333      7414.6878      12723.85       20138.538      141190.32      41.458299      41.458299      82.145159          16004 
   3986000   3560.0355      597495.81      7451.9967      594048.19      600753.29      597685.96     -4241.2201     -1266.1609      3624.22        7364.1117      12734.296      20098.408      141293.42      41.468387      41.468387      82.165147          16004 
   3987000   3547.5664      601468.23      7459.5187      599604.77      602397.62      602402.29     -558.81483      0.68918612     3123.9371      7338.3189      12836.054      20174.373      141089.09      41.448388      41.448388      82.125521          16004 
   3988000   3565.1946      606854.61      7467.0381      606560.12      606182.99      607820.71      2067.48       -2024.7529     -584.00051      7374.7837      12825.708      20200.492      141018         41.441425      41.441425      82.111725          16004 
   3989000   3573.4945      597818.06      7474.5569      595808.3       597857.85      599788.04     -1713.9324     -431.8617      -798.01012      7391.9523      12716.302      20108.254      141262.42      41.465355      41.465355      82.15914           16004 
   3990000   3574.7177      600484.91      7482.0776      601402.5       597751.48      602300.74     -1222.6316     -2517.7178     -4112.5076      7394.4827      12723.418      20117.901      141235.08      41.462679      41.462679      82.153838          16004 
   3991000   3618.6867      601979.55      7489.6018      598825.09      604738.85      602374.71     -556.77465      3780.9407     -2842.1768      7485.4347      12665.401      20150.836      141146.2       41.45398       41.45398       82.136601          16004 
   3992000   3561.9789      603747.79      7497.1212      601062.83      604523.96      605656.58      1456.6848     -2741.3801      3616.996       7368.1319      12819.963      20188.095      141046.71      41.444237      41.444237      82.117298          16004 
   3993000   3563.678       596247.47      7504.636       599947.49      593225.66      595569.27     -7185.1304      817.52911      1499.4182      7371.6464      12749.791      20121.437      141223.53      41.461549      41.461549      82.151599          16004 
   3994000   3583.0145      603187.79      7512.159       602778.41      603597.73      603187.21      350.91327      282.85572      285.05844      7411.6451      12766.963      20178.608      141067.87      41.44631       41.44631       82.121404          16004 
   3995000   3597.4744      596823.9       7519.6748      593915.82      597408.19      599147.67     -1138.1435     -2478.2242     -1751.1657      7441.5561      12657.451      20099.007      141279.36      41.467012      41.467012      82.162422          16004 
   3996000   3585.4401      599157.34      7527.1992      599076.52      598870.1       599525.4      -2617.8516      1078.9025     -1155.3449      7416.6624      12712.977      20129.639      141193.83      41.458642      41.458642      82.14584           16004 
   3997000   3569.7621      602375.46      7534.7157      602081.36      600300.51      604744.5      -598.81594      1599.8412     -3672.6878      7384.2317      12803.225      20187.456      141038.55      41.443438      41.443438      82.115714          16004 
   3998000   3611.2086      601355.34      7542.2353      599304.27      600965.43      603796.31     -374.58045     -3189.8623      3692.2973      7469.9658      12697.458      20167.423      141091.95      41.448668      41.448668      82.126077          16004 
   3999000   3596.8293      598950.52      7549.7564      595436.55      598768.3       602646.71     -3228.1286      2490.0599     -604.84949      7440.2216      12665.877      20106.099      141254.54      41.464584      41.464584      82.157612          16004 
   4000000   3603.9398      595764.74      7557.2825      595655.94      595374.67      596263.62     -2862.7271      6265.4414     -4620.6472      7454.93        12604.376      20059.306      141379.07      41.476765      41.476765      82.181747          16004 
Loop time of 7557.28 on 8 procs for 1000000 steps with 16004 atoms

Performance: 5.716 ns/day, 4.198 hours/ns, 132.323 timesteps/s
61.4% CPU use with 1 MPI tasks x 8 OpenMP threads

MPI task timing breakdown:
Section |  min time  |  avg time  |  max time  |%varavg| %total
---------------------------------------------------------------
Pair    | 7264.7     | 7264.7     | 7264.7     |   0.0 | 96.13
Neigh   | 11.537     | 11.537     | 11.537     |   0.0 |  0.15
Comm    | 42.498     | 42.498     | 42.498     |   0.0 |  0.56
Output  | 1.3997     | 1.3997     | 1.3997     |   0.0 |  0.02
Modify  | 211.05     | 211.05     | 211.05     |   0.0 |  2.79
Other   |            | 26.06      |            |       |  0.34

Nlocal:          16004 ave       16004 max       16004 min
Histogram: 1 0 0 0 0 0 0 0 0 0
Nghost:          14484 ave       14484 max       14484 min
Histogram: 1 0 0 0 0 0 0 0 0 0
Neighs:              0 ave           0 max           0 min
Histogram: 1 0 0 0 0 0 0 0 0 0
FullNghs:  1.63225e+06 ave 1.63225e+06 max 1.63225e+06 min
Histogram: 1 0 0 0 0 0 0 0 0 0

Total # of neighbors = 1632250
Ave neighs/atom = 101.99013
Neighbor list builds = 30738
Dangerous builds = 0
Total wall time: 8:03:12
