
atom_style atomic
units metal
boundary p p p
#atom_modify sort 0 0.0
newton on

read_data data.lammps
Reading data file ...
  orthogonal box = (0 0 0) to (43.790145 43.790145 87.58029)
  1 by 1 by 1 MPI processor grid
  reading atoms ...
  16004 atoms
  read_data CPU = 0.061 seconds
# replicate 10 10 20

### interactions

pair_style flare
pair_coeff * * lmp.flare
Reading potential file lmp.flare with DATE: Thu

# compute unc all flare/std/atom L_inv_lmp.flare sparse_desc_lmp.flare
# compute MaxUnc all reduce max c_unc

mass 1 12.011000
mass 2 28.085000

thermo_style custom step temp press cpu pxx pyy pzz pxy pxz pyz ke pe etotal vol lx ly lz atoms    #c_MaxUnc
thermo 1000
timestep 0.0005
restart 100000 restart_*.dat

#################### Equilibrate at P and T_es ##############################
velocity all create $T 41928459 rot yes dist gaussian
velocity all create 3200 41928459 rot yes dist gaussian
fix mom all momentum 1000 linear 1 1 1 angular

fix 1 all npt temp $T $T $(100.0*dt) iso $P $P $(1000.0*dt)
fix 1 all npt temp 3200 $T $(100.0*dt) iso $P $P $(1000.0*dt)
fix 1 all npt temp 3200 3200 $(100.0*dt) iso $P $P $(1000.0*dt)
fix 1 all npt temp 3200 3200 0.050000000000000002776 iso $P $P $(1000.0*dt)
fix 1 all npt temp 3200 3200 0.050000000000000002776 iso 100000 $P $(1000.0*dt)
fix 1 all npt temp 3200 3200 0.050000000000000002776 iso 100000 100000 $(1000.0*dt)
fix 1 all npt temp 3200 3200 0.050000000000000002776 iso 100000 100000 0.5
dump 1 all custom 1000 1equil.bin id type x y z vx vy vz
run   10000 # report performance
Neighbor list info ...
  update every 1 steps, delay 10 steps, check yes
  max neighbors/atom: 2000, page size: 100000
  master list distance cutoff = 6
  ghost atom cutoff = 6
  binsize = 6, bins = 8 8 15
  1 neighbor lists, perpetual/occasional/extra = 1 0 0
  (1) pair flare/kk, perpetual
      attributes: full, newton on, kokkos_device
      pair build: full/bin/kk/device
      stencil: full/bin/3d
      bin: kk/device
Per MPI rank memory allocation (min/avg/max) = 15.9 | 15.9 | 15.9 Mbytes
   Step          Temp          Press           CPU            Pxx            Pyy            Pzz            Pxy            Pxz            Pyz           KinEng         PotEng         TotEng         Volume           Lx             Ly             Lz          Atoms   
         0   3200           62295.48       0              61920.045      62313.853      62652.542     -790.80119      8.8236366     -494.42354      6619.3603     -4000.2205      2619.1398      167941.93      43.790145      43.790145      87.58029           16004 
      1000   3129.7235      97835.537      6.3950282      97187.281      98597.419      97721.909     -1293.8083      362.49032      1336.3218      6473.9898      3287.2536      9761.2434      169887.94      43.958634      43.958634      87.917267          16004 
      2000   3216.295       97540.53       12.729804      97977.29       96732.369      97911.932     -565.66374     -307.76738      2383.0071      6653.0673      3424.4505      10077.518      170203.7       43.985851      43.985851      87.971702          16004 
      3000   3160.9614      101659.22      19.066315      100792.68      101704.55      102480.41      443.74546     -1842.715       688.50839      6538.6071      3221.4594      9760.0665      169674.32      43.940202      43.940202      87.880403          16004 
      4000   3252.7345      99597.818      25.422734      99244.41       99564.447      99984.595     -520.0385       2585.5398     -1918.37        6728.4443      3324.4899      10052.934      170077.12      43.974945      43.974945      87.94989           16004 
      5000   3173.1552      100721.3       31.755118      99904.481      100532.58      101726.84     -784.00831     -2764.1034     -1071.2967      6563.8304      3270.1197      9833.9502      169828.89      43.95354       43.95354       87.90708           16004 
      6000   3222.6003      98738.341      38.087489      99466.061      98935.085      97813.877      1780.3869     -381.6362      -610.0074       6666.1101      3233.535       9899.6452      169972.76      43.965948      43.965948      87.931896          16004 
      7000   3194.0607      98902.823      44.420842      99401.738      97557.8        99748.93       344.32757      241.45556     -2916.6274      6607.0745      3336.2034      9943.2779      170083.47      43.975491      43.975491      87.950983          16004 
      8000   3171.1184      98726.181      50.754637      97668.881      99662.717      98846.944     -1677.3591     -1661.6864      1174.6535      6559.6172      3261.3142      9820.9315      169967.3       43.965478      43.965478      87.930955          16004 
      9000   3213.2913      97772.1        57.086858      97161.211      98696.245      97458.846      422.91852      1112.5127     -924.16985      6646.8541      3344.3314      9991.1855      170127.02      43.979245      43.979245      87.95849           16004 
     10000   3170.5308      100658.43      63.426361      101332.65      99569.349      101073.28     -956.46059      174.19825     -371.96174      6558.4017      3290.1387      9848.5404      169837.11      43.954249      43.954249      87.908499          16004 
Loop time of 63.4264 on 8 procs for 10000 steps with 16004 atoms

Performance: 6.811 ns/day, 3.524 hours/ns, 157.663 timesteps/s
61.1% CPU use with 1 MPI tasks x 8 OpenMP threads

MPI task timing breakdown:
Section |  min time  |  avg time  |  max time  |%varavg| %total
---------------------------------------------------------------
Pair    | 60.217     | 60.217     | 60.217     |   0.0 | 94.94
Neigh   | 0.088515   | 0.088515   | 0.088515   |   0.0 |  0.14
Comm    | 0.38637    | 0.38637    | 0.38637    |   0.0 |  0.61
Output  | 0.034711   | 0.034711   | 0.034711   |   0.0 |  0.05
Modify  | 2.4337     | 2.4337     | 2.4337     |   0.0 |  3.84
Other   |            | 0.266      |            |       |  0.42

Nlocal:          16004 ave       16004 max       16004 min
Histogram: 1 0 0 0 0 0 0 0 0 0
Nghost:          13604 ave       13604 max       13604 min
Histogram: 1 0 0 0 0 0 0 0 0 0
Neighs:              0 ave           0 max           0 min
Histogram: 1 0 0 0 0 0 0 0 0 0
FullNghs:  1.38241e+06 ave 1.38241e+06 max 1.38241e+06 min
Histogram: 1 0 0 0 0 0 0 0 0 0

Total # of neighbors = 1382412
Ave neighs/atom = 86.379155
Neighbor list builds = 277
Dangerous builds = 0
run  990000
Per MPI rank memory allocation (min/avg/max) = 15.98 | 15.98 | 15.98 Mbytes
   Step          Temp          Press           CPU            Pxx            Pyy            Pzz            Pxy            Pxz            Pyz           KinEng         PotEng         TotEng         Volume           Lx             Ly             Lz          Atoms   
     10000   3170.5308      100658.43      0              101332.65      99569.349      101073.28     -956.46059      174.19825     -371.96174      6558.4017      3290.1387      9848.5404      169837.11      43.954249      43.954249      87.908499          16004 
     11000   3206.7002      101218.48      6.3309403      101213.29      101912.32      100529.83     -618.95477     -1709.2324     -59.769487      6633.2201      3280.3861      9913.6062      169862.3       43.956422      43.956422      87.912843          16004 
     12000   3209.7504      100608.11      12.659495      98655.059      101748.69      101420.58     -688.30482      2462.0932     -814.59408      6639.5295      3335.722       9975.2515      169901.32      43.959787      43.959787      87.919574          16004 
     13000   3171.7492      101501.46      19.002879      102374.72      100035.41      102094.25     -1588.68        1084.9215     -899.75461      6560.9222      3275.0432      9835.9653      169821.36      43.95289       43.95289       87.90578           16004 
     14000   3229.9304      99238.74       25.348437      99369.763      98223.131      100123.33     -427.05594     -1086.951       925.50516      6681.2728      3315.5979      9996.8707      170037.67      43.971544      43.971544      87.943089          16004 
     15000   3186.4457      100010.62      31.68147       101808.74      99780.084      98443.022      273.49005     -2276.6239     -1347.7757      6591.3226      3259.2822      9850.6049      169843.69      43.954817      43.954817      87.909633          16004 
     16000   3199.1262      97920.895      38.009235      98953.451      97377.71       97431.524      1840.8508      1836.988       647.47977      6617.5528      3289.2083      9906.7611      170155.77      43.981722      43.981722      87.963444          16004 
     17000   3170.5766      98846.259      44.32711       98336.515      98359.293      99842.968     -175.50586     -1098.6712     -192.73816      6558.4966      3226.5169      9785.0136      169930.58      43.962311      43.962311      87.924623          16004 
     18000   3232.4979      100315.67      50.645715      100279.84      100569.23      100097.94     -594.17033      903.80967     -889.46159      6686.5839      3243.4777      9930.0616      169904.37      43.960051      43.960051      87.920101          16004 
     19000   3221.8116      100066.47      56.967379      98116.46       100731.4       101351.55     -135.60258      160.96182     -275.33235      6664.4788      3346.5885      10011.067      169992.97      43.967691      43.967691      87.935382          16004 
     20000   3206.6556      100154.82      63.287236      99882.776      99359.552      101222.12     -437.17307     -511.09893      189.24134      6633.1277      3270.7051      9903.8328      169935.62      43.962745      43.962745      87.925491          16004 
     21000   3203.4363      98672.785      69.607217      98935.058      99120.373      97962.925     -1594.5321     -1476.9433     -797.75958      6626.4686      3390.0407      10016.509      170080.48      43.975234      43.975234      87.950468          16004 
     22000   3209.5716      98315.206      75.924705      98458.565      98390.879      98096.174     -366.23728      66.276645      1059.6068      6639.1597      3246.1539      9885.3137      169958.96      43.964758      43.964758      87.929516          16004 
     23000   3211.4231      95602.938      82.24509       94751.034      95421.667      96636.114      1681.9927      1312.2318     -554.48988      6642.9896      3232.8969      9875.8864      170270.88      43.991638      43.991638      87.983276          16004 
     24000   3206.6123      96668.854      88.569745      96134.865      96645.084      97226.613      489.85571      2940.004      -359.32776      6633.0382      3274.1277      9907.1659      170268.89      43.991466      43.991466      87.982931          16004 
     25000   3176.2103      98743.513      94.893672      99564.29       97802.446      98863.802      91.817137     -281.16811      2535.5049      6570.1501      3289.0272      9859.1774      170023.21      43.970298      43.970298      87.940596          16004 
     26000   3213.5074      97139.116      101.21691      97461.171      96664.04       97292.137     -622.97206     -124.5618      -1018.8197      6647.301       3316.8767      9964.1778      170188.91      43.984577      43.984577      87.969154          16004 
     27000   3200.219       97293.673      107.54279      97310.37       98070.836      96499.812      72.855652     -2010.7285      127.47767      6619.8133      3249.6352      9869.4485      170068.02      43.97416       43.97416       87.94832           16004 
     28000   3214.8173      97852.014      113.87077      97397.891      99062.353      97095.797     -245.93756     -260.85764      14.715629      6650.0106      3156.2774      9806.2881      170035.48      43.971356      43.971356      87.942711          16004 
     29000   3198.592       95991.528      120.19943      95687.164      96706.891      95580.53      -673.58776     -944.68482     -103.00714      6616.4478      3262.4513      9878.8992      170204.2       43.985894      43.985894      87.971789          16004 
     30000   3206.2265      96874.131      126.52654      96910.071      96683.35       97028.974      1484.3611      502.98035     -313.14495      6632.2402      3206.163       9838.4031      170131.14      43.9796        43.9796        87.9592            16004 
     31000   3205.9829      97172.761      132.84743      97324.864      96631.951      97561.467      775.26139     -246.89571     -289.97175      6631.7363      3275.5924      9907.3287      170075         43.974762      43.974762      87.949524          16004 
     32000   3198.8125      101884.36      139.16945      102389.39      101290.68      101973.02      2031.6876     -1096.936       163.00746      6616.9039      3309.2577      9926.1616      169892.91      43.959062      43.959062      87.918125          16004 
     33000   3214.1894      100550.2       145.49177      100274.99      101599.89      99775.717     -330.05434      784.55643      3420.1312      6648.7119      3252.4752      9901.1871      169759.02      43.947511      43.947511      87.895022          16004 
     34000   3212.9671      103221.02      151.81744      102580.7       103538.58      103543.77      670.25412     -1375.2134     -520.46699      6646.1834      3387.8949      10034.078      169698.89      43.942322      43.942322      87.884644          16004 
     35000   3179.7222      104372.79      158.14454      104863.79      103387.8       104866.79     -459.81282      1369.1502     -108.75695      6577.4148      3307.5885      9885.0033      169502.34      43.92535       43.92535       87.850701          16004 
     36000   3216.8597      101382.76      164.47785      100982.54      101786.85      101378.91      202.39202     -875.3544      -1075.2241      6654.2355      3302.1102      9956.3456      169831.78      43.95379       43.95379       87.907579          16004 
     37000   3208.3639      102913.49      170.80407      101827.73      103348.65      103564.1       3128.0142     -877.1585       844.28879      6636.6615      3322.5004      9959.1619      169806.98      43.95165       43.95165       87.9033            16004 
     38000   3199.3593      104191.89      177.14326      102844.74      104318.82      105412.11      29.860819      1283.2824      78.33085       6618.0351      3340.9139      9958.9489      169643.78      43.937565      43.937565      87.875129          16004 
     39000   3222.6169      104066.1       183.48603      105185.43      104249.74      102763.11     -38.261894     -743.65783     -221.97316      6666.1445      3276.2469      9942.3914      169585.22      43.932509      43.932509      87.865018          16004 
     40000   3216.8632      101389.45      189.82324      100733.72      101584.74      101849.88      189.20096      113.02254     -520.57867      6654.2426      3359.6021      10013.845      169852.2       43.955551      43.955551      87.911102          16004 
     41000   3181.4642      100259.59      196.16675      99821.619      101823.69      99133.47       297.17965     -2161.4865     -495.9989       6581.0181      3340.1638      9921.1818      169948.72      43.963876      43.963876      87.927751          16004 
     42000   3196.1478      100855.39      202.50936      101935.64      100415.56      100214.98      345.01994      185.40077     -92.060548      6611.3919      3200.6072      9811.9991      169737.92      43.94569       43.94569       87.891381          16004 
     43000   3210.8786      98725.72       208.85707      98378.693      98100.206      99698.263     -287.54901     -444.12689     -1476.2176      6641.8633      3271.6652      9913.5285      170024.77      43.970432      43.970432      87.940864          16004 
     44000   3220.1268      95677.653      215.19675      95204.622      97068.628      94759.709     -2497.1909     -1540.86       -1130.707       6660.9937      3270.963       9931.9567      170200.29      43.985557      43.985557      87.971115          16004 
     45000   3183.7884      98892.888      221.53653      100151.95      98538.94       97987.772      969.89709     -1505.0295      662.0135       6585.8258      3240.9371      9826.7629      170003.27      43.968579      43.968579      87.937158          16004 
     46000   3197.8023      95843.096      227.87614      96279.151      95994.516      95255.621      9.6038414     -579.3141       309.50468      6614.8143      3350.9739      9965.7882      170302.81      43.994387      43.994387      87.988775          16004 
     47000   3211.0743      95807.428      234.21621      96793.421      94921.122      95707.74      -1730.7967      278.35865      1030.1482      6642.2681      3224.4891      9866.7571      170188.8       43.984568      43.984568      87.969136          16004 
     48000   3201.0151      97666.844      240.56031      97383.689      96707.319      98909.523     -823.43704     -155.59172      1808.5138      6621.4601      3242.3787      9863.8388      170057.96      43.973293      43.973293      87.946586          16004 
     49000   3204.235       100499.07      246.90516      100944.41      101407.8       99144.999      785.85225      1139.9126      1492.0823      6628.1207      3268.7332      9896.8539      169931.64      43.962403      43.962403      87.924806          16004 
     50000   3189.4103      100264.88      253.25394      100169.26      101355.02      99270.349     -158.42764      466.09762      575.56726      6597.4549      3292.6139      9890.0688      169851.48      43.955489      43.955489      87.910978          16004 
     51000   3201.2278      99949.042      259.6087       101202.46      99578.036      99066.627      517.70555     -709.29884     -1528.9607      6621.9001      3288.5079      9910.4079      169874.57      43.957481      43.957481      87.914961          16004 
     52000   3227.6994      97407.536      265.96105      97491.196      98236.657      96494.754     -1644.3435      436.83897     -578.62979      6676.658       3321.4111      9998.0691      170106.65      43.97749       43.97749       87.954979          16004 
     53000   3200.6487      99606.215      272.31683      99136.861      99366.994      100314.79     -1175.0545      106.46749     -830.36075      6620.7022      3267.3151      9888.0173      169804.31      43.951419      43.951419      87.902839          16004 
     54000   3266.7863      99169.439      278.67115      99935.182      98347.917      99225.219      2598.5543      2075.0954      1864.1623      6757.5112      3283.5981      10041.109      169986.22      43.967109      43.967109      87.934218          16004 
     55000   3193.428       99645.952      285.02551      99499.505      99865.015      99573.336     -573.46161      1937.0952      1007.3765      6605.7657      3290.753       9896.5188      169960.98      43.964933      43.964933      87.929865          16004 
     56000   3197.75        99838.778      291.38343      100673.45      98716.291      100126.59     -412.28323      193.2729      -724.51391      6614.7061      3312.6169      9927.3231      169844.11      43.954853      43.954853      87.909706          16004 
     57000   3203.5096      99582.366      297.73982      99499.737      99245.511      100001.85      2141.4937     -808.74336     -1289.6874      6626.62        3328.373       9954.9931      169923.04      43.961661      43.961661      87.923322          16004 
     58000   3227.4785      99806.25       304.09448      99005.832      99850.972      100561.95      111.84488     -2112.9878      478.12779      6676.201       3267.505       9943.706       169943.09      43.96339       43.96339       87.92678           16004 
     59000   3211.0375      100255.14      310.44718      100656.77      99874.025      100234.63      945.40074      3711.4069     -1098.8298      6642.192       3272.8766      9915.0686      169855.59      43.955843      43.955843      87.911687          16004 
     60000   3247.2917      99988.055      316.79694      100370.66      99120.874      100472.63      1515.9103      517.22472     -443.45405      6717.1856      3248.3819      9965.5675      169946.49      43.963683      43.963683      87.927366          16004 
     61000   3234.4938      99902.39       323.1518       98950.911      101199.65      99556.609      74.047158      1049.435       929.92212      6690.7125      3271.8391      9962.5516      169911.33      43.960651      43.960651      87.921302          16004 
     62000   3231.146       100685.81      329.50547      98840.218      102110.55      101106.66      603.69927      181.64471     -1249.7467      6683.7873      3323.2484      10007.036      169908.04      43.960367      43.960367      87.920735          16004 
     63000   3248.857       100293.92      335.8597       98364.405      100626.82      101890.55     -168.592       -388.00057     -323.07518      6720.4234      3207.3614      9927.7848      169817.31      43.952541      43.952541      87.905082          16004 
     64000   3172.8534      101202.74      342.21305      99465.157      101986.41      102156.65     -1814.7333      2300.5319     -774.36798      6563.2063      3281.5902      9844.7964      169738.11      43.945707      43.945707      87.891415          16004 
     65000   3202.8305      103155.88      348.56645      102783.06      104169.6       102514.99     -293.02373      70.100539      2543.8663      6625.2154      3308.7721      9933.9875      169660.58      43.939015      43.939015      87.878029          16004 
     66000   3210.8725      100764.2       354.92128      100174.45      101362.45      100755.69     -4.1453017     -287.10386      891.72049      6641.8506      3277.9708      9919.8215      169772.03      43.948635      43.948635      87.897269          16004 
     67000   3183.9448      102380.91      361.27296      102287.92      102234.52      102620.3      -2476.7698     -858.8988      -1981.2418      6586.1493      3220.5628      9806.712       169595.28      43.933377      43.933377      87.866754          16004 
     68000   3222.0064      100497.5       367.62528      101823.92      99598.251      100070.31      1737.2812      1248.3032     -585.64544      6664.8817      3251.2524      9916.1341      169781.7       43.949468      43.949468      87.898936          16004 
     69000   3231.3646      101289.17      373.97912      100689.72      101662.99      101514.81      495.7154       17.587252      1962.1273      6684.2395      3254.0927      9938.3322      169788.03      43.950015      43.950015      87.90003           16004 
     70000   3209.0565      102376.87      380.32884      102767.15      102289.94      102073.51      857.26727      921.22763      1032.4959      6638.0941      3222.4637      9860.5578      169682.37      43.940896      43.940896      87.881792          16004 
     71000   3221.0663      100739.55      386.67802      101455         101313.3       99450.342     -344.4384      -1866.3881     -274.52813      6662.9371      3255.0918      9918.0289      169808.4       43.951772      43.951772      87.903544          16004 
     72000   3208.4686      102900.86      393.02599      102319.3       102946.01      103437.26      956.54299     -1672.4528     -268.26205      6636.878       3266.9932      9903.8712      169787.54      43.949972      43.949972      87.899945          16004 
     73000   3207.5376      101509.18      399.36983      101814.32      101197.78      101515.43     -267.6523      -1330.6622     -213.99921      6634.9522      3291.386       9926.3382      169825.19      43.95322       43.95322       87.906441          16004 
     74000   3245.3306      98994.435      405.7154       100002.21      96861.74       100119.35     -666.01933     -1487.0296      1011.9765      6713.129       3284.8696      9997.9986      170040.97      43.971829      43.971829      87.943658          16004 
     75000   3203.7631      99573.387      412.05859      99737.009      100379.66      98603.493      209.05641     -913.83416      249.83455      6627.1446      3325.1233      9952.2678      169974.83      43.966127      43.966127      87.932254          16004 
     76000   3201.2543      100519.28      418.402        100397.45      100221.11      100939.27      101.57366      673.0217       1178.4069      6621.9549      3262.7634      9884.7183      169855.65      43.955849      43.955849      87.911697          16004 
     77000   3213.9079      98905.003      424.74669      98487.353      99576.995      98650.66       40.315813     -1029.9678     -1049.393       6648.1295      3346.0295      9994.1589      170105.78      43.977414      43.977414      87.954828          16004 
     78000   3208.9047      98714.838      431.09223      97044.871      99126.249      99973.393     -1434.8978     -2530.7681      294.73252      6637.7802      3255.2193      9892.9995      169950.46      43.964025      43.964025      87.92805           16004 
     79000   3187.2951      100906.28      437.44561      101687.51      100584.21      100447.13      1195.763      -1692.9392     -45.205125      6593.0796      3309.6927      9902.7723      169779.68      43.949294      43.949294      87.898588          16004 
     80000   3178.842       101673.96      443.80448      102302.14      101606.78      101112.96     -102.83483     -127.92524      1067.6001      6575.5939      3351.6871      9927.2809      169756.29      43.947276      43.947276      87.894552          16004 
     81000   3234.0296      99893.532      450.16011      100445.63      100340.89      98894.073      2062.0998      91.14545      -1548.32        6689.7522      3335.3679      10025.12       169902.65      43.959902      43.959902      87.919805          16004 
     82000   3230.4829      101415.9       456.51633      100775.95      101577.5       101894.26      509.86897     -295.37495      2527.2218      6682.4158      3267.8194      9950.2352      169700.44      43.942456      43.942456      87.884912          16004 
     83000   3208.8354      103786.26      462.87233      105064.31      103084.57      103209.9       1135.9852      2329.2769      217.31341      6637.6368      3333.8399      9971.4768      169646.72      43.937818      43.937818      87.875636          16004 
     84000   3218.8014      100300.34      469.22938      100375.61      100409.82      100115.59     -1028.2523      983.90318      1719.6378      6658.2519      3300.1636      9958.4155      169860.43      43.956261      43.956261      87.912521          16004 
     85000   3193.9103      102062.17      475.58526      102006.1       101507.57      102672.84      653.90175     -163.58006      1173.1093      6606.7635      3186.902       9793.6655      169676.82      43.940417      43.940417      87.880834          16004 
     86000   3204.5362      102784.38      481.94152      102115.29      102763.67      103474.17      139.87299     -133.60241      1066.9656      6628.7437      3221.8334      9850.5771      169682.32      43.940892      43.940892      87.881783          16004 
     87000   3226.0231      102036.67      488.29827      101965         102261.5       101883.5       1171.9689     -407.87456      702.04673      6673.1904      3300.9363      9974.1267      169735.35      43.945469      43.945469      87.890938          16004 
     88000   3237.9458      103755.67      494.65277      103786.02      103641.11      103839.88      39.797985      1505.3364      1816.1144      6697.8532      3229.3511      9927.2043      169621.24      43.935618      43.935618      87.871237          16004 
     89000   3201.4588      106631.9       501.00223      106802.7       107018.24      106074.76     -2002.4307     -516.86135     -2117.9517      6622.378       3351.1186      9973.4966      169427.22      43.91886       43.91886       87.83772           16004 
     90000   3232.4355      102468.47      507.34713      101852         102942.55      102610.86      870.57225     -2111.4268      19.837643      6686.4547      3269.5026      9955.9573      169706.79      43.943003      43.943003      87.886007          16004 
     91000   3211.3564      102529.73      513.69506      101748.41      102462.74      103378.02     -743.16905     -839.24103     -227.0959       6642.8515      3210.2104      9853.0619      169679.21      43.940623      43.940623      87.881247          16004 
     92000   3159.4486      101515.27      520.03894      102101.44      100648.63      101795.73      201.2655       980.21777      563.63433      6535.4778      3303.0543      9838.5321      169802.26      43.951243      43.951243      87.902486          16004 
     93000   3219.6255      99724.959      526.38712      100256         99898.543      99020.332     -1854.8095      1096.8311      431.86892      6659.9566      3409.6674      10069.624      170007.78      43.968967      43.968967      87.937935          16004 
     94000   3183.5132      98290.697      532.73438      97474.678      100047.19      97350.22       387.53356      102.59174     -1697.1488      6585.2565      3259.2075      9844.464       169956.41      43.964539      43.964539      87.929078          16004 
     95000   3208.8379      99787.366      539.08194      98645.485      100463.09      100253.52     -1060.2488     -1164.5816      115.56892      6637.6419      3254.0131      9891.6549      169819.49      43.952729      43.952729      87.905459          16004 
     96000   3203.6044      98955.633      545.42831      98656.694      99767.883      98442.322      2167.6392     -172.10648      783.45362      6626.8162      3333.5209      9960.3371      170026.32      43.970565      43.970565      87.941131          16004 
     97000   3190.5363      101612.96      551.77272      101547.52      101469.12      101822.23      37.421459      699.35361     -1041.054       6599.7842      3286.1299      9885.9142      169720.47      43.944185      43.944185      87.88837           16004 
     98000   3244.9665      99230.711      558.11629      97914.229      99950.957      99826.947     -2827.5097      2775.5368     -684.00354      6712.3757      3320.151       10032.527      170006.1       43.968823      43.968823      87.937645          16004 
     99000   3143.8691      102604.3       564.45659      103328.64      102416.64      102067.6      -292.67035      1040.8223      379.09698      6503.2506      3320.2983      9823.5489      169726.83      43.944734      43.944734      87.889467          16004 
    100000   3203.7146      101776.25      570.80506      101405.68      101300.85      102622.22     -1019.3916     -1564.1867      670.50429      6627.0441      3295.4476      9922.4917      169736.74      43.945589      43.945589      87.891178          16004 
    101000   3232.94        99330.488      577.14969      99786.391      99960.896      98244.177      1794.374      -1214.5161     -1719.0391      6687.4984      3281.694       9969.1924      169929.76      43.962241      43.962241      87.924481          16004 
    102000   3169.9976      101514.47      583.49797      102530.37      101178.89      100834.14     -652.1631      -1940.4136     -525.10309      6557.2988      3331.8497      9889.1485      169750.85      43.946806      43.946806      87.893613          16004 
    103000   3225.4984      98763.198      589.85254      98625.319      99105.277      98558.996      1018.9066     -1202.3933     -910.75631      6672.1051      3309.4252      9981.5303      169994.38      43.967812      43.967812      87.935625          16004 
    104000   3207.9826      99176.875      596.20861      99066.405      99683.559      98780.663      274.58495      138.70686      870.19258      6635.8728      3219.1967      9855.0695      169875.73      43.957581      43.957581      87.915162          16004 
    105000   3178.2722      100244.19      602.56363      100765.32      100252.06      99715.194      1291.3389      2230.3053      1762.4431      6574.4152      3321.5661      9895.9813      169873.3       43.957371      43.957371      87.914741          16004 
    106000   3216.704       99733.608      608.91868      98145.413      101587.88      99467.526      1481.2934      1818.4374      3512.6567      6653.9135      3258.2841      9912.1976      169795.73      43.950679      43.950679      87.901358          16004 
    107000   3210.7221      100952.64      615.27539      101733.48      100500.6       100623.84      1090.9669      19.932572     -2055.1183      6641.5394      3244.2236      9885.763       169705.8       43.942919      43.942919      87.885837          16004 
    108000   3216.7729      100352.28      621.63029      99544.379      102222.32      99290.13       40.593998     -135.95129      846.60696      6654.056       3325.0602      9979.1162      169966.59      43.965416      43.965416      87.930833          16004 
    109000   3201.4507      100845.59      627.98641      101985.48      98833.973      101717.3       258.23828     -650.38036     -1160.8073      6622.3612      3208.8018      9831.1629      169806.27      43.951588      43.951588      87.903176          16004 
    110000   3192.4391      101195.21      634.34224      101320.43      100423.55      101841.64      110.75704     -588.48787      640.48875      6603.7202      3323.3085      9927.0286      169879.27      43.957886      43.957886      87.915771          16004 
    111000   3179.4321      101038.64      640.69897      101594.57      100343.17      101178.19      914.16577      913.9804       618.18494      6576.8146      3218.7816      9795.5961      169731.07      43.9451        43.9451        87.890199          16004 
    112000   3215.7726      101369.06      647.05345      101301.29      102102.19      100703.69     -1567.7218      1059.5088      2149.1515      6651.9867      3242.5655      9894.5522      169789.77      43.950165      43.950165      87.90033           16004 
    113000   3200.1125      100739.33      653.40933      100732.41      101474.02      100011.56      1775.9215      361.2973       1037.2496      6619.5931      3303.6221      9923.2152      169833.96      43.953978      43.953978      87.907955          16004 
    114000   3212.7983      99828.926      659.7655       99350.265      100818.03      99318.48       344.34936      645.23629     -118.33121      6645.8342      3297.429       9943.2631      169916.04      43.961057      43.961057      87.922114          16004 
    115000   3233.7256      98993.464      666.11777      99002.417      99641.216      98336.76       1572.1848     -133.97535     -615.5857       6689.1233      3232.6295      9921.7529      169878.81      43.957846      43.957846      87.915692          16004 
    116000   3215.1245      100580.95      672.4721       101003.62      99626.141      101113.1       87.735411     -803.02775     -1521.3401      6650.646       3344.7818      9995.4279      169958.9       43.964753      43.964753      87.929506          16004 
    117000   3184.4903      99293.026      678.82686      99354.157      100008.97      98515.955     -1489.1815      1560.6682     -160.7148       6587.2777      3259.4027      9846.6804      169940.49      43.963166      43.963166      87.926331          16004 
    118000   3213.0676      97696.921      685.18287      97800.946      96799.713      98490.105      2086.9392      703.4684      -161.85789      6646.3912      3285.676       9932.0672      170082.83      43.975436      43.975436      87.950872          16004 
    119000   3193.374       100268.54      691.53984      100100.64      100597.93      100107.05     -208.11957      1496.53       -1399.1576      6605.654       3230.3727      9836.0268      169859.44      43.956175      43.956175      87.912351          16004 
    120000   3184.3361      99346.061      697.89425      99667.225      98805.615      99565.342     -481.46798      318.89168      886.4657       6586.9587      3337.728       9924.6867      170026.35      43.970568      43.970568      87.941136          16004 
    121000   3180.2502      100351.76      704.2484       101221.65      99986.394      99847.237      347.14351      933.22095      1629.0009      6578.5069      3339.2012      9917.7081      169957.89      43.964666      43.964666      87.929332          16004 
    122000   3199.1472      101589.2       710.60165      101354.27      101072.93      102340.4      -1137.3102     -545.08076     -48.749615      6617.5962      3231.8452      9849.4415      169665.83      43.939468      43.939468      87.878936          16004 
    123000   3212.2481      100017.83      716.9555       100354.8       100338.5       99360.181      1117.5758     -802.63576     -739.71059      6644.6961      3303.3771      9948.0732      169883.8       43.958277      43.958277      87.916553          16004 
    124000   3194.6794      102522.29      723.30887      103052.73      102252.37      102261.77      540.24523      127.00698      2406.1145      6608.3543      3302.4259      9910.7803      169675.09      43.940267      43.940267      87.880535          16004 
    125000   3246.3032      102934.58      729.66383      104066.34      101804.74      102932.66     -1365.4122     -2690.1629      907.54046      6715.1408      3308.8083      10023.949      169701.4       43.942538      43.942538      87.885077          16004 
    126000   3175.0683      101281.24      736.01586      100955.67      101454.63      101433.42     -1265.3024      1634.1226      93.529926      6567.7879      3288.7989      9856.5868      169683.66      43.941007      43.941007      87.882014          16004 
    127000   3218.7827      101265.67      742.35967      102127.45      100946.06      100723.51      404.66988     -1770.1884      582.32798      6658.2132      3366.5948      10024.808      169903.07      43.959938      43.959938      87.919877          16004 
    128000   3196.3687      101904.31      748.7052       100961.23      101535.21      103216.48     -1539.4507      2102.2641      1443.1998      6611.8488      3299.521       9911.3698      169773.23      43.948738      43.948738      87.897476          16004 
    129000   3179.8172      104496.11      755.05423      104706.19      105316.19      103465.96     -2.760336      -519.00848      745.61095      6577.6112      3356.9067      9934.5179      169543.73      43.928925      43.928925      87.857851          16004 
    130000   3187.2377      107669.81      761.4085       107571.03      107117.02      108321.36     -784.46848      15.045003     -1454.5222      6592.9608      3391.3106      9984.2714      169418.24      43.918084      43.918084      87.836168          16004 
    131000   3231.0966      102386.67      767.76551      101640.5       102276.34      103243.19     -1229.8916      1193.9671     -766.29224      6683.6853      3310.4173      9994.1026      169695.13      43.941997      43.941997      87.883994          16004 
    132000   3228.3136      103115.61      774.11399      103475.94      103555.91      102315        -952.79265      267.40096     -549.14937      6677.9283      3260.4232      9938.3516      169694.04      43.941904      43.941904      87.883807          16004 
    133000   3215.484       101302.36      780.46615      100708.93      101508.71      101689.45      247.27396     -315.52517     -50.083806      6651.3897      3284.8171      9936.2068      169838.84      43.954398      43.954398      87.908796          16004 
    134000   3178.1013      101756.17      786.81972      101761.14      101560.9       101946.46      3159.2877      595.62716     -339.75054      6574.0618      3264.0208      9838.0825      169685.96      43.941206      43.941206      87.882412          16004 
    135000   3173.975       99837.957      793.17231      99098.602      100368.79      100046.48     -745.99312     -2241.2957     -65.279531      6565.5263      3368.8091      9934.3354      169891.48      43.958939      43.958939      87.917877          16004 
    136000   3197.2519      103256.77      799.52316      102233.67      104475.59      103061.06     -1844.9585     -423.78767     -1159.2541      6613.6758      3306.2426      9919.9184      169596.81      43.933509      43.933509      87.867019          16004 
    137000   3226.2178      104576.93      805.8735       104509.12      103170.79      106050.87     -1438.0999      299.04922     -1360.1476      6673.5931      3302.9027      9976.4957      169494.66      43.924687      43.924687      87.849374          16004 
    138000   3182.5395      104749.07      812.22452      105494.61      103686.54      105066.06     -559.72981     -1020.352       961.85362      6583.2423      3234.8213      9818.0636      169465.32      43.922152      43.922152      87.844304          16004 
    139000   3240.1314      101350.39      818.57494      100965.5       102074.91      101010.76      1085.1589     -3041.7883     -711.69057      6702.3742      3267.8291      9970.2032      169770.28      43.948483      43.948483      87.896966          16004 
    140000   3214.792       102384.75      824.92258      101784.19      104323.8       101046.25     -125.14779     -970.44269      2007.6894      6649.9584      3239.0583      9889.0167      169643.93      43.937578      43.937578      87.875156          16004 
    141000   3209.108       102054.72      831.27301      102673.24      100746.45      102744.46     -9.0572787     -1153.2995      1220.5791      6638.2007      3234.8074      9873.0081      169624.5       43.9359        43.9359        87.871801          16004 
    142000   3242.8851      103213.26      837.62087      103255.44      103195.42      103188.93     -431.38906     -609.76259      888.46392      6708.0703      3255.8456      9963.9159      169645.82      43.93774       43.93774       87.875481          16004 
    143000   3227.8599      102001.35      843.96989      101611.05      102030.17      102362.84      534.50973      1172.065      -1101.9383      6676.9899      3281.5686      9958.5584      169771.53      43.948591      43.948591      87.897182          16004 
    144000   3185.1735      102086.33      850.32067      103031.08      101802.82      101425.1       82.82621       1236.3417     -975.37494      6588.6909      3380.9515      9969.6425      169822.35      43.952976      43.952976      87.905951          16004 
    145000   3186.365       101302         856.66804      101573.43      101101.14      101231.44      49.502983     -967.21555      380.90123      6591.1555      3287.9618      9879.1173      169729.93      43.945001      43.945001      87.890003          16004 
    146000   3173.7947      102422.45      863.01797      101317.25      102322.94      103627.15      1282.3422     -1087.3792      791.41519      6565.1534      3295.7996      9860.953       169657.15      43.938719      43.938719      87.877437          16004 
    147000   3200.4263      101657.65      869.36739      102229.97      101968.71      100774.28      695.92392     -1407.7099     -2265.9854      6620.2421      3292.9877      9913.2297      169821.18      43.952875      43.952875      87.905749          16004 
    148000   3234.1331      101705.09      875.71646      100318.15      101883.86      102913.25     -1642.5554     -61.872026      2349.131       6689.9663      3203.7513      9893.7176      169739.36      43.945815      43.945815      87.89163           16004 
    149000   3228.7585      101824.12      882.06494      102297.21      101867.92      101307.23     -540.13665     -1280.3126     -370.35718      6678.8487      3350.1792      10029.028      169884.9       43.958371      43.958371      87.916743          16004 
    150000   3186.7984      103512.11      888.41478      103357.48      104267.23      102911.61      447.17358      2080.773       894.26818      6592.0522      3294.1929      9886.2451      169563.47      43.93063       43.93063       87.86126           16004 
    151000   3214.7728      102385.84      894.76191      103016.92      102707.7       101432.9      -353.9559      -2747.2741      1752.9742      6649.9186      3321.4559      9971.3745      169770.31      43.948485      43.948485      87.896971          16004 
    152000   3168.6477      102120.09      901.1098       102174.89      102405.89      101779.49     -143.33902      2012.2281     -1884.4773      6554.5065      3241.6712      9796.1778      169629.85      43.936362      43.936362      87.872724          16004 
    153000   3214.7285      99939.079      907.45806      100441.3       98438.197      100937.75      1654.7505      479.95889     -476.52448      6649.827       3253.4768      9903.3038      169859.45      43.956176      43.956176      87.912353          16004 
    154000   3178.6439      97952.169      913.80183      99110.794      98281.917      96463.795     -1121.8334      679.80359      1187.1048      6575.1842      3334.5683      9909.7525      170085.25      43.975645      43.975645      87.951291          16004 
    155000   3203.4353      99393.107      920.1463       99302.505      99200.139      99676.677     -82.86446      -828.99282      2167.2425      6626.4664      3212.498       9838.9644      169984.5       43.966961      43.966961      87.933921          16004 
    156000   3215.4765      98461.796      926.48915      98634.755      98485.679      98264.954      819.71497      168.2282       1032.2435      6651.3742      3208.476       9859.8501      170001         43.968383      43.968383      87.936766          16004 
    157000   3206.0019      96967.925      932.83296      98423.134      95486.505      96994.136     -423.5658      -2156.7375     -405.75613      6631.7756      3275.2144      9906.99        170154.14      43.981581      43.981581      87.963163          16004 
    158000   3188.7028      98499.125      939.17785      98334.611      98240.611      98922.154      1680.9394      676.71275      2039.2657      6595.9914      3279.2624      9875.2538      169949.79      43.963968      43.963968      87.927936          16004 
    159000   3186.8882      99364.226      945.52881      100032.41      99647.788      98412.482     -1154.6631     -306.06822     -407.64047      6592.238       3241.5707      9833.8086      169891.65      43.958954      43.958954      87.917907          16004 
    160000   3200.8769      100354.77      951.88565      100465.64      100830.15      99768.518      1420.6157     -7.4764167     -572.27006      6621.1743      3264.9619      9886.1362      169849.58      43.955325      43.955325      87.91065           16004 
    161000   3209.3239      95729.452      958.2404       96178.21       97357.419      93652.725     -1001.4393     -1888.067      -166.04792      6638.6472      3324.7227      9963.3699      170218.2       43.987101      43.987101      87.974201          16004 
    162000   3185.0725      94132.622      964.59646      91903.297      95267.429      95227.139     -850.3145      -578.72533     -452.54536      6588.4819      3215.2604      9803.7423      170192.89      43.98492       43.98492       87.969839          16004 
    163000   3205.8958      95899.111      970.95221      96628.5        95529.876      95538.956     -1870.7801      812.02283     -1110.6516      6631.5561      3338.514       9970.0701      170250.36      43.98987       43.98987       87.979741          16004 
    164000   3188.989       99028.528      977.30854      97667.176      99676.034      99742.372      1173.1709      488.89177     -497.50238      6596.5835      3306.3586      9902.9421      169957.05      43.964594      43.964594      87.929187          16004 
    165000   3205.8732      100633.59      983.66404      99956.011      100599.65      101345.11      227.30126      292.81587      899.85258      6631.5093      3284.4572      9915.9664      169835.44      43.954105      43.954105      87.908211          16004 
    166000   3236.7591      98986.534      990.01915      98743.089      99397.82       98818.693     -190.53964     -705.27951      518.59701      6695.3984      3291.1925      9986.5909      170043.37      43.972035      43.972035      87.944071          16004 
    167000   3166.5526      94363.578      996.37471      95285.951      94674.516      93130.266      158.92722     -946.09426      992.13972      6550.1726      3279.3943      9829.5669      170280.57      43.992472      43.992472      87.984944          16004 
    168000   3171.0396      96290.672      1002.7294      96452.025      96496.596      95923.394      508.41305     -808.63196     -1399.813       6559.4542      3220.4886      9779.9428      170142.01      43.980537      43.980537      87.961073          16004 
    169000   3177.0862      95750.333      1009.0834      95337.247      95696.559      96217.194     -1502.8709      2502.6463     -2596.2582      6571.9619      3282.2464      9854.2083      170159.37      43.982032      43.982032      87.964064          16004 
    170000   3223.3503      95992.527      1015.4377      95704.851      95306.033      96966.696      1213.5326     -1500.614      -2137.0402      6667.6616      3399.6248      10067.286      170234.93      43.988541      43.988541      87.977082          16004 
    171000   3196.6929      99382.35       1021.7925      100095.19      100137.65      97914.207     -848.60566     -910.62387     -2648.9173      6612.5194      3285.5276      9898.047       169965.5       43.965322      43.965322      87.930644          16004 
    172000   3209.2849      96778.837      1028.1458      95912.23       97443.239      96981.041      142.7275      -3443.5332      1205.8254      6638.5667      3344.1042      9982.6708      170129.73      43.979478      43.979478      87.958956          16004 
    173000   3176.9501      97164          1034.4982      98164.495      96256.908      97070.599      474.94519     -1419.2282     -1397.8737      6571.6805      3264.9775      9836.6579      170095.9       43.976563      43.976563      87.953126          16004 
    174000   3171.8862      93887.271      1040.8542      92946.366      95287.6        93427.846      318.20656     -240.67164     -1613.5985      6561.2055      3177.9714      9739.1769      170300.32      43.994173      43.994173      87.988346          16004 
    175000   3165.3199      95227.412      1047.2066      94609.348      96099.71       94973.18      -415.98373     -264.16889      1734.4136      6547.6229      3359.6161      9907.239       170269.96      43.991558      43.991558      87.983116          16004 
    176000   3149.5559      99469.155      1053.559       99868.379      100473.88      98065.203      1416.829      -2173.0913     -1032.1152      6515.0142      3304.5121      9819.5263      169881.92      43.958114      43.958114      87.916229          16004 
    177000   3177.4855      98894.767      1059.9128      99091.697      99872.907      97719.697      1959.9363      830.80945     -926.34927      6572.7879      3286.7637      9859.5516      169979.55      43.966534      43.966534      87.933068          16004 
    178000   3211.4557      97104.673      1066.2653      95594.741      97636.788      98082.49       1429.3299      567.42291      455.08894      6643.057       3359.1268      10002.184      170237.05      43.988724      43.988724      87.977447          16004 
    179000   3203.6723      99210.05       1072.6181      99070.805      99652.131      98907.215      446.05301     -329.46909      629.83268      6626.9567      3279.9365      9906.8932      169939.69      43.963096      43.963096      87.926193          16004 
    180000   3207.2702      101284.42      1078.9677      99509.112      101324.29      103019.87      2295.7337     -2986.9004      769.70973      6634.399       3278.1597      9912.5587      169773.87      43.948793      43.948793      87.897585          16004 
    181000   3218.9796      99161.279      1085.3161      99688.184      99113.27       98682.383     -598.05779      419.06849     -1152.6991      6658.6207      3255.6328      9914.2535      169953.06      43.96425       43.96425       87.928499          16004 
    182000   3194.7071      98108.805      1091.6653      98089.979      98038.556      98197.88       175.20486      1407.4761      231.06334      6608.4116      3218.9555      9827.3671      170001.78      43.96845       43.96845       87.936901          16004 
    183000   3204.1062      96189.947      1098.0126      95938.055      95236.928      97394.859     -61.90889       3754.667      -745.95823      6627.8542      3327.4862      9955.3404      170215.68      43.986883      43.986883      87.973765          16004 
    184000   3180.6273      97169.184      1104.3566      98058.436      98294.655      95154.461      1055.9973     -3122.0977     -1354.9114      6579.2869      3259.1541      9838.4409      170012.37      43.969363      43.969363      87.938727          16004 
    185000   3218.0023      94982.715      1110.7036      94296.35       95209.546      95442.248     -196.41539     -991.12146     -2438.0868      6656.599       3212.3128      9868.9118      170196.38      43.98522       43.98522       87.97044           16004 
    186000   3168.8779      95837.786      1117.0538      96075.152      94983.238      96454.968      298.33821      644.38802      556.52486      6554.9827      3308.008       9862.9907      170190.74      43.984734      43.984734      87.969469          16004 
    187000   3241.7475      97355.335      1123.4082      99244.379      95337.143      97484.483     -2496.5102     -409.71247      809.15368      6705.7172      3218.2355      9923.9527      170131.97      43.979671      43.979671      87.959343          16004 
    188000   3189.1797      96158.064      1129.7587      96697.897      95755.67       96020.624     -175.39203     -2024.995      -19.600594      6596.9779      3263.7537      9860.7316      170163.89      43.982422      43.982422      87.964844          16004 
    189000   3204.7691      96031.241      1136.1149      95244.996      97128.686      95720.041     -673.9173      -637.70777      622.39015      6629.2254      3315.1769      9944.4023      170216.37      43.986942      43.986942      87.973885          16004 
    190000   3192.3967      99713.678      1142.4691      98707.956      100528.42      99904.655     -1453.9564      1088.593       1055.6246      6603.6325      3256.217       9859.8495      169995.43      43.967902      43.967902      87.935805          16004 
    191000   3177.9953      98178.962      1148.8243      98976.214      97815.63       97745.042      1731.0915     -1856.8539      160.20725      6573.8425      3313.3832      9887.2257      170038.92      43.971652      43.971652      87.943304          16004 
    192000   3224.1652      97950.938      1155.1801      97786.976      97901.797      98164.042      941.60423     -163.4443      -1623.418       6669.3473      3302.1758      9971.523       170144.51      43.980752      43.980752      87.961503          16004 
    193000   3202.8007      96317.905      1161.5343      96186.719      96217.425      96549.573     -171.55068      459.64663     -88.734649      6625.1537      3224.9036      9850.0572      170144.28      43.980732      43.980732      87.961465          16004 
    194000   3194.3656      95913.904      1167.8919      94218.519      95970.088      97553.106     -566.02077      565.45308     -620.65955      6607.7054      3245.8308      9853.5361      170219.78      43.987236      43.987236      87.974472          16004 
    195000   3208.6946      96484.596      1174.2459      94814.406      96070.438      98568.943      2166.8458     -132.70553     -78.457082      6637.3455      3306.6919      9944.0374      170168.9       43.982853      43.982853      87.965706          16004 
    196000   3184.7253      99115.202      1180.6003      99737.406      99620.079      97988.122     -1850.9235      187.00708     -1004.2195      6587.7639      3245.1375      9832.9014      169819.9       43.952765      43.952765      87.90553           16004 
    197000   3224.8392      96041.091      1186.9534      96522.457      96091.039      95509.776     -1150.1907     -497.21834      2534.4204      6670.7414      3267.2557      9937.9971      170190.43      43.984708      43.984708      87.969416          16004 
    198000   3156.4071      98665.501      1193.3059      98210.957      98431.607      99353.939      5.0682974      669.3753       55.455971      6529.1863      3259.1789      9788.3651      169915.72      43.961029      43.961029      87.922059          16004 
    199000   3191.8385      98753.472      1199.6536      99469.794      98283.751      98506.87       311.56038      31.056486     -651.99062      6602.4779      3242.4157      9844.8936      169945.95      43.963636      43.963636      87.927272          16004 
    200000   3209.6128      96959.858      1206.0226      97523.539      96624.436      96731.599      1305.5755      226.25077     -1342.8699      6639.2448      3338.1424      9977.3872      170169.46      43.982901      43.982901      87.965802          16004 
    201000   3200.0982      95962.653      1212.3702      94931.53       96045.279      96911.15       1357.1027     -1052.7231      2969.2941      6619.5634      3277.3854      9896.9488      170170.19      43.982964      43.982964      87.965929          16004 
    202000   3171.4337      98885.776      1218.7221      100009.45      98070.893      98576.99       71.964591      1458.6102     -2519.7261      6560.2696      3292.3583      9852.6279      169999.95      43.968293      43.968293      87.936585          16004 
    203000   3236.3603      97168.054      1225.0692      97032.366      96993.538      97478.257     -250.87297     -59.327835     -381.60977      6694.5733      3331.3873      10025.961      170155.47      43.981696      43.981696      87.963391          16004 
    204000   3205.7771      101592.33      1231.4074      102730.16      100797.22      101249.62      636.88305     -840.89299      2594.6526      6631.3106      3227.8362      9859.1467      169722.1       43.944326      43.944326      87.888651          16004 
    205000   3189.9646      99440.045      1237.7499      100413.46      98610.453      99296.222      189.49421     -392.43528     -737.47951      6598.6015      3340.6093      9939.2108      169978.33      43.966428      43.966428      87.932856          16004 
    206000   3201.2625      98258.215      1244.0927      98118.456      98262.348      98393.841     -672.13261      1555.267       1019.2603      6621.972       3295.8297      9917.8016      170018.87      43.969924      43.969924      87.939847          16004 
    207000   3224.8168      95722.453      1250.4367      95251.853      96591.171      95324.334     -532.42546     -1419.6299     -1013.257       6670.6951      3282.3286      9953.0238      170263.86      43.991033      43.991033      87.982066          16004 
    208000   3166.8358      96245.45       1256.7823      95637.912      97821.19       95277.247     -1353.8245     -410.5796       288.25757      6550.7585      3293.1242      9843.8827      170102.46      43.977128      43.977128      87.954256          16004 
    209000   3204.982       94263.614      1263.1271      94058.099      93931.748      94800.995     -169.67143      703.85879     -2195.5159      6629.6659      3249.4092      9879.0751      170283.47      43.992722      43.992722      87.985443          16004 
    210000   3178.2241      98038.359      1269.4732      97388          99033.646      97693.431     -264.7189      -542.15348     -1701.636       6574.3159      3236.3992      9810.7151      170042.14      43.971929      43.971929      87.943858          16004 
    211000   3197.0193      97206.395      1275.8195      96690.599      97210.497      97718.087     -1381.8618      534.97443      1649.8826      6613.1946      3319.3533      9932.5479      170107.95      43.977601      43.977601      87.955203          16004 
    212000   3185.3876      100737.71      1282.166       100296.09      102242.91      99674.135      1514.2624     -1535.1331     -1888.5387      6589.1338      3250.9385      9840.0724      169835.45      43.954106      43.954106      87.908213          16004 
    213000   3245.2713      99933.254      1288.5125      100015.35      99094.884      100689.53      752.82524      2509.2832     -51.473352      6713.0062      3279.9716      9992.9777      170047.83      43.97242       43.97242       87.94484           16004 
    214000   3206.5604      99936.889      1294.8572      100417.45      100473.41      98919.809     -161.60069      631.27005      1508.1878      6632.9309      3260.6307      9893.5616      169920.86      43.961473      43.961473      87.922946          16004 
    215000   3184.0274      101035.68      1301.2022      101322.07      101364.2       100420.77     -574.44124      862.98647      190.29804      6586.3203      3372.6269      9958.9472      169848.66      43.955246      43.955246      87.910492          16004 
    216000   3171.6441      103464.14      1307.5398      102157.05      103357.03      104878.34     -1821.924      -147.57533      554.46703      6560.7048      3373.6202      9934.3249      169663.29      43.939249      43.939249      87.878498          16004 
    217000   3237.4835      100713.72      1313.8788      100481.05      101183.54      100476.59     -1749.4468     -104.56242     -1263.4104      6696.8968      3277.8956      9974.7924      169883.64      43.958262      43.958262      87.916525          16004 
    218000   3172.214       102459.29      1320.2176      102143.89      102758.62      102475.35      283.47145      432.21949     -350.2355       6561.8836      3344.6396      9906.5232      169720.38      43.944177      43.944177      87.888353          16004 
    219000   3211.7433      102977.98      1326.5557      103518.47      101425.74      103989.72     -577.77721      105.18177      1193.2066      6643.6519      3295.7229      9939.3748      169664.36      43.939341      43.939341      87.878683          16004 
    220000   3201.5129      101767.32      1332.8932      100824.25      102464.42      102013.28      1072.9537      889.53086     -1581.7565      6622.4898      3277.4182      9899.908       169741.29      43.945981      43.945981      87.891962          16004 
    221000   3201.0088      101558.44      1339.2321      101113.26      101850.1       101711.96     -557.18416      238.64699     -1076.6969      6621.447       3272.8541      9894.3011      169796.14      43.950714      43.950714      87.901428          16004 
    222000   3204.4875      100717.94      1345.5724      100179.99      102411.92      99561.925     -145.8058      -310.46678      172.14601      6628.6429      3273.3901      9902.033       169873.64      43.9574        43.9574        87.9148            16004 
    223000   3158.9055      100847.14      1351.9184      101478.16      99682.185      101381.06      33.365905      1855.9        -637.93835      6534.3542      3273.6289      9807.9831      169787.71      43.949987      43.949987      87.899973          16004 
    224000   3216.1974      99673.227      1358.2703      98547.561      100044.09      100428.03      907.10568      2547.2412     -1020.9966      6652.8654      3227.7598      9880.6252      169931.19      43.962364      43.962364      87.924728          16004 
    225000   3206.883       99925.465      1364.6208      98149.913      100566.95      101059.53     -1778.0651     -1158.5796      1437.3661      6633.5981      3279.5018      9913.0999      169940.99      43.963209      43.963209      87.926417          16004 
    226000   3200.6503      100687.7       1370.9707      101259.11      100039.69      100764.28      920.74691      541.01137     -995.85904      6620.7055      3301.7905      9922.4961      169869.79      43.957068      43.957068      87.914136          16004 
    227000   3221.9085      101063.83      1377.3203      101098.74      100370.11      101722.65      352.30968      478.30666      1626.8833      6664.6791      3391.7138      10056.393      169893.77      43.959136      43.959136      87.918273          16004 
    228000   3179.9798      103552.12      1383.6696      103413.75      103828.88      103413.73      1177.7911      1484.4636      147.0776       6577.9476      3327.4768      9905.4244      169603.33      43.934073      43.934073      87.868145          16004 
    229000   3203.6355      102522.18      1390.0225      102475.12      102522.56      102568.88     -1849.8184      1214.5175     -784.29521      6626.8805      3340.0297      9966.9102      169701.92      43.942583      43.942583      87.885167          16004 
    230000   3227.4172      101259.35      1396.3736      101290.77      101044.23      101443.05     -1252.1108      432.59672      1327.53        6676.0741      3333.4866      10009.561      169876.88      43.957679      43.957679      87.915359          16004 
    231000   3212.7354      101819.54      1402.7261      102076.06      100911.81      102470.76     -445.3368      -1002.3372      26.54705       6645.704       3208.7881      9854.4922      169646.91      43.937835      43.937835      87.875671          16004 
    232000   3239.3676      101376.41      1409.0751      101021.6       101391.83      101715.8      -81.865617      950.94813      161.70277      6700.7941      3338.574       10039.368      169870.74      43.95715       43.95715       87.9143            16004 
    233000   3199.969       104198.98      1415.4246      104426.9       103793.2       104376.84      668.69317     -1647.4493     -1394.6993      6619.2962      3255.7345      9875.0307      169548.12      43.929305      43.929305      87.858609          16004 
    234000   3176.4731      102958.52      1421.7747      102765.69      102639.2       103470.67     -2376.0658     -549.14556     -1930.9181      6570.6938      3438.6821      10009.376      169759.27      43.947533      43.947533      87.895066          16004 
    235000   3173.869       103265.95      1428.1243      103638.67      103606         102553.19     -1133.0251     -368.3297      -2366.0324      6565.307       3307.655       9872.962       169624.33      43.935885      43.935885      87.871771          16004 
    236000   3184.4612      101890.04      1434.4675      102488.36      101715.84      101465.92      1393.1442      1188.2782     -1020.8156      6587.2175      3277.441       9864.6585      169679.74      43.940669      43.940669      87.881337          16004 
    237000   3216.885       101121.24      1440.8078      100395.2       101953.36      101015.17      332.12817      930.6211      -258.53834      6654.2879      3346.1625      10000.45       169941.12      43.96322       43.96322       87.926441          16004 
    238000   3179.3048      100658.22      1447.1483      99908.414      100700.87      101365.38      433.94347     -1109.9401      597.82114      6576.5512      3258.1461      9834.6974      169767.99      43.948285      43.948285      87.896571          16004 
    239000   3195.1251      99221.141      1453.489       99124.608      99461.303      99077.513      56.233962     -831.16904      543.81735      6609.2763      3306.5213      9915.7976      169988.33      43.967291      43.967291      87.934581          16004 
    240000   3155.1404      100302.88      1459.8325      100493.63      99793.543      100621.47      298.22054     -1883.4151     -164.70219      6526.566       3309.0261      9835.592       169876.06      43.957609      43.957609      87.915218          16004 
    241000   3193.2496      97486.708      1466.1803      97848.868      97640.622      96970.633     -923.87908      1018.3576      516.07048      6605.3968      3318.3519      9923.7487      170180.91      43.983888      43.983888      87.967776          16004 
    242000   3181.6715      99398.849      1472.5304      99207.166      99342.091      99647.291     -1254.1743      124.90323     -758.89655      6581.4469      3242.4104      9823.8573      169875.87      43.957593      43.957593      87.915186          16004 
    243000   3215.5015      100078.18      1478.8801      99883.488      100432.92      99918.135     -1022.8191     -2017.5318     -517.49248      6651.426       3281.9586      9933.3846      169843.16      43.954771      43.954771      87.909542          16004 
    244000   3198.9166      103595.65      1485.231       103324.01      103893.08      103569.85      517.55478      947.25703     -474.29202      6617.1192      3277.2554      9894.3746      169614.53      43.935039      43.935039      87.870079          16004 
    245000   3211.8962      101061.38      1491.5827      100849.09      100852.31      101482.76     -1172.1405      7.4769352     -575.54902      6643.9682      3321.578       9965.5462      169799.22      43.95098       43.95098       87.90196           16004 
    246000   3223.0521      99666.312      1497.9383      99745.596      100603.62      98649.722      1483.989       156.52467      23.2553        6667.0448      3258.404       9925.4488      169794.16      43.950543      43.950543      87.901087          16004 
    247000   3161.1258      101598         1504.2921      102142.01      102056.31      100595.69      692.81417      685.04881      1016.9339      6538.947       3256.2272      9795.1742      169565.69      43.930822      43.930822      87.861644          16004 
    248000   3180.0395      101865.63      1510.6459      101206.92      101671.54      102718.43      713.91685      1077.2291      2102.8944      6578.071       3311.993       9890.064       169654.17      43.938462      43.938462      87.876924          16004 
    249000   3205.9607      103368.79      1517.0013      104201.4       102219.45      103685.53     -2957.8647     -1862.4384     -1228.4164      6631.6904      3262.2873      9893.9777      169575.61      43.931678      43.931678      87.863357          16004 
    250000   3237.488       100513.85      1523.3562      100112.19      100799.76      100629.6       465.51307     -868.13341     -1577.4832      6696.9062      3240.3287      9937.2349      169864.03      43.956572      43.956572      87.913143          16004 
    251000   3198.9973      101494.55      1529.7113      100843.41      103533.41      100106.85      968.14242     -6.7943933      1655.797       6617.2863      3197.0509      9814.3372      169750.75      43.946798      43.946798      87.893596          16004 
    252000   3225.4271      99686.528      1536.0661      100471.96      99730.137      98857.492      684.81221      791.64545     -922.10762      6671.9576      3285.0891      9957.0467      169875.99      43.957603      43.957603      87.915206          16004 
    253000   3163.4414      101891.95      1542.4211      101146.77      100867.02      103662.05     -570.24423     -1205.8727      465.84721      6543.7371      3289.9309      9833.6681      169712.41      43.943489      43.943489      87.886979          16004 
    254000   3184.5527      101721.74      1548.7747      101359.57      102018.36      101787.28     -169.73786      1144.3306     -1240.7613      6587.4068      3197.4533      9784.8601      169707.97      43.943105      43.943105      87.886211          16004 
    255000   3228.4326      99251.538      1555.1266      98356.984      99862.915      99534.714     -635.99728      1048.1314      144.40143      6678.1746      3255.2067      9933.3813      169896.95      43.959411      43.959411      87.918821          16004 
    256000   3218.5107      102138.69      1561.4784      102397.83      101817.71      102200.52      61.196651     -197.83418      442.92275      6657.6506      3320.677       9978.3276      169804.63      43.951447      43.951447      87.902895          16004 
    257000   3211.6358      102027.16      1567.8332      101779.38      102165.07      102137.02     -639.53135      141.70005     -1511.5829      6643.4296      3296.6171      9940.0467      169728.31      43.944862      43.944862      87.889723          16004 
    258000   3180.507       101597.9       1574.1818      101463.73      100809.17      102520.79      354.90602     -2707.8245      165.20986      6579.0382      3268.2116      9847.2498      169667.31      43.939596      43.939596      87.879192          16004 
    259000   3199.4385      99968.064      1580.5275      100613.35      99532.7        99758.143     -194.53867      1219.6103     -157.18791      6618.1988      3337.4299      9955.6287      169845.99      43.955015      43.955015      87.91003           16004 
    260000   3197.5097      100565.25      1586.8727      99535.587      102383.76      99776.419      26.499877     -3097.9393     -1240.9574      6614.209       3267.4587      9881.6677      169782.18      43.94951       43.94951       87.89902           16004 
    261000   3202.2446      101049.63      1593.2215      101101         100347.37      101700.52     -253.93661      477.19411     -1.8307076      6624.0033      3322.0052      9946.0085      169849.23      43.955295      43.955295      87.910589          16004 
    262000   3204.9736      100485.48      1599.5666      99950.374      101372.68      100133.38     -451.14592      1764.0651      50.722157      6629.6485      3257.3984      9887.0469      169781.14      43.94942       43.94942       87.898841          16004 
    263000   3201.7261      101978.19      1605.9088      101677.45      101249.11      103008.02      1973.9893      1476.092       940.04143      6622.9309      3275.0235      9897.9544      169724.02      43.944491      43.944491      87.888982          16004 
    264000   3213.6072      101306.47      1612.2527      101620.95      101670.47      100628         352.09519     -1921.6232     -299.8405       6647.5075      3353.3231      10000.831      169900.62      43.959728      43.959728      87.919455          16004 
    265000   3206.572       102173.46      1618.5937      103401.28      102196.29      100922.82     -353.72416     -195.4262      -432.12865      6632.9548      3294.0014      9926.9562      169669.13      43.939753      43.939753      87.879505          16004 
    266000   3242.3573      102638.76      1624.9322      103266.68      103250.85      101398.74      25.803484      33.846008     -1069.9151      6706.9786      3243.6376      9950.6162      169623.42      43.935807      43.935807      87.871614          16004 
    267000   3228.2054      102239.84      1631.2746      101355.01      103275.48      102089.03      50.022033     -402.35364     -1614.6776      6677.7047      3278.4243      9956.129       169669.34      43.939771      43.939771      87.879543          16004 
    268000   3165.5224      104141.35      1637.6204      103122.2       104018.36      105283.47     -1280.156      -1290.8142     -2134.2247      6548.0417      3331.5098      9879.5515      169563.42      43.930625      43.930625      87.861251          16004 
    269000   3208.2211      101506.73      1643.9745      101835.36      101291.88      101392.95      1584.2551     -1973.7025     -198.23398      6636.366       3346.7418      9983.1078      169839.13      43.954423      43.954423      87.908846          16004 
    270000   3205.4165      100462.06      1650.3303      99223.084      102173.75      99989.344     -2647.7452     -741.74944      949.84346      6630.5646      3235.7383      9866.303       169731.91      43.945172      43.945172      87.890344          16004 
    271000   3214.0409      101712.93      1656.6857      101284         103009.34      100845.44     -1077.6239      328.59107     -2232.6861      6648.4046      3301.0176      9949.4222      169703.82      43.942748      43.942748      87.885496          16004 
    272000   3210.1209      101073.67      1663.0416      101351.53      100455.23      101414.26      75.039808      363.18489     -162.29427      6640.2958      3214.6928      9854.9886      169643.63      43.937552      43.937552      87.875103          16004 
    273000   3221.1755      98911.902      1669.3992      98858.272      98301.953      99575.48      -1380.0589      238.68032      802.58177      6663.1628      3275.0645      9938.2273      169998.63      43.968179      43.968179      87.936358          16004 
    274000   3158.1946      101950.75      1675.7548      102326.05      101384.72      102141.5       349.26247      277.37078      609.15336      6532.8838      3241.5078      9774.3916      169681.07      43.940784      43.940784      87.881568          16004 
    275000   3212.0923      101036.88      1682.1081      101401.62      102353.71      99355.319      97.605348      2842.9707      367.92929      6644.3738      3274.3965      9918.7703      169898.66      43.959558      43.959558      87.919116          16004 
    276000   3214.5734      98880.288      1688.4605      98805.852      99059.933      98775.078     -1090.6792      1288.0532      2244.4549      6649.5062      3264.384       9913.8903      169921.46      43.961525      43.961525      87.92305           16004 
    277000   3164.7876      97627.873      1694.8158      98405.444      96904.002      97574.172     -1472.1962      1579.1313      124.54221      6546.5218      3230.6512      9777.1729      169969.91      43.965702      43.965702      87.931405          16004 
    278000   3184.7406      98426.052      1701.1711      98646.251      98230.156      98401.748     -782.95989     -2001.6363      1453.8104      6587.7954      3334.0812      9921.8766      170024.31      43.970392      43.970392      87.940785          16004 
    279000   3183.8669      101554.4       1707.5256      100978.2       102091.26      101593.75      1051.9095     -1215.1783     -126.90615      6585.9882      3221.5828      9807.5711      169734.36      43.945383      43.945383      87.890767          16004 
    280000   3207.3405      101722.67      1713.8764      101977.16      101116.39      102074.45      277.75732     -1242.0472      651.02309      6634.5444      3324.5869      9959.1313      169771.04      43.948549      43.948549      87.897097          16004 
    281000   3166.3894      102927.07      1720.2287      103124.41      102603.19      103053.6       559.82472      1390.1051     -1882.6869      6549.8351      3343.2408      9893.076       169609.16      43.934576      43.934576      87.869151          16004 
    282000   3213.3887      104104.68      1726.5838      106141.51      102824.1       103348.44      860.6004      -973.74307     -219.57004      6647.0556      3270.9751      9918.0306      169487.88      43.924102      43.924102      87.848203          16004 
    283000   3215.9686      104042.44      1732.9342      102924.7       104270.93      104931.68     -220.36792     -74.584174      2325.406       6652.3922      3284.6378      9937.03        169531.27      43.927849      43.927849      87.855699          16004 
    284000   3220.4822      104240.25      1739.2845      104344.48      104382.04      103994.22      3284.1018     -150.63654      985.10697      6661.7287      3241.6614      9903.3901      169509.81      43.925995      43.925995      87.85199           16004 
    285000   3212.9759      101289.82      1745.6346      101100.84      101117.86      101650.76     -288.73334      212.38369     -2191.0991      6646.2016      3396.8161      10043.018      169875.47      43.957558      43.957558      87.915117          16004 
    286000   3208.0305      100018.4       1751.9866      98764.025      100317.06      100974.12     -2494.3801     -1254.8461     -204.08432      6635.9717      3267.0561      9903.0278      169783.59      43.949631      43.949631      87.899263          16004 
[...]
   3930000   3153.6502      102533.15      6629.7541      95037.764      93365.906      119195.79     -250.56871      68.187449      152.63008      6523.4835      7490.4666      14013.95       178490.81      44.377875      44.377875      90.632271          16004 
   3931000   3183.315       99173.15       6636.8576      90248.791      91851.692      115418.97      325.48333     -1063.5122     -3496.4505      6584.8465      7404.1759      13989.022      178871.64      44.409414      44.409414      90.696682          16004 
   3932000   3164.0936      98876.45       6643.962       89168.218      89751.009      117710.12      2566.1354     -2739.5348     -666.40137      6545.0862      7446.6667      13991.753      178812.26      44.404499      44.404499      90.686645          16004 
   3933000   3167.5803      99851.991      6651.075       89705.575      92481.286      117369.11      433.6403      -2488.7405     -3406.1631      6552.2986      7435.2427      13987.541      178870.67      44.409334      44.409334      90.69652           16004 
   3934000   3186.4773      98058.463      6658.2007      87581.201      90188.674      116405.51      1283.0655      2364.5483     -411.3834       6591.3879      7409.7468      14001.135      178653.64      44.391365      44.391365      90.659823          16004 
   3935000   3157.9266      98432.129      6665.3051      88263.153      89226.793      117806.44     -1061.1024      301.02948     -123.07077      6532.3294      7456.1613      13988.491      178856.39      44.408152      44.408152      90.694106          16004 
   3936000   3190.4255      99316.913      6672.4066      91644.886      90146.225      116159.63     -1188.7351     -945.70766     -615.82947      6599.555       7392.6364      13992.191      178796.83      44.403222      44.403222      90.684037          16004 
   3937000   3160.3405      92291.915      6679.5143      83565.934      82787.849      110521.96     -843.56353     -2731.3601      1236.1499      6537.3226      7416.6638      13953.986      179416.81      44.454485      44.454485      90.788731          16004 
   3938000   3163.8121      99190.678      6686.6161      88422.02       92184.091      116965.92     -307.81856     -1250.7668      2266.7935      6544.5038      7442.757       13987.261      178894.03      44.411267      44.411267      90.700466          16004 
   3939000   3171.8887      102914.51      6693.7426      97207.728      95023.581      116512.21      2461.4313      2808.394      -816.56893      6561.2107      7455.1797      14016.39       178408.87      44.371083      44.371083      90.6184            16004 
   3940000   3181.4894      100559.9       6700.8621      90981.142      92023.746      118674.81     -1768.8901     -3033.8449     -1365.9248      6581.0703      7412.4761      13993.546      178779.4       44.401779      44.401779      90.68109           16004 
   3941000   3175.292       101322.47      6707.9695      92785.825      93822.947      117358.63     -277.37296      2340.1894      2771.2301      6568.2507      7433.3285      14001.579      178643.42      44.390519      44.390519      90.658094          16004 
   3942000   3160.0631      102556.99      6715.0748      93319.505      94607.643      119743.82     -1812.055       1361.0103     -1180.0168      6536.7489      7459.4686      13996.217      178726.93      44.397435      44.397435      90.672217          16004 
   3943000   3162.2496      98699.707      6722.1831      88368.852      93637.741      114092.53     -125.10071      25.377761      873.97419      6541.2718      7442.6124      13983.884      178903.99      44.412091      44.412091      90.70215           16004 
   3944000   3131.2147      102479.85      6729.2966      93145.51       94853.694      119440.34     -1138.9922     -2975.3087      3562.456       6477.0745      7532.1991      14009.274      178487.92      44.377635      44.377635      90.631781          16004 
   3945000   3165.9752      99740.154      6736.4236      94871.578      91167.035      113181.85      592.31004     -1145.3586      173.54455      6548.9783      7460.3729      14009.351      178490.66      44.377862      44.377862      90.632246          16004 
   3946000   3153.5421      99790.058      6743.5364      92911.366      91391.032      115067.77      2584.9272     -1860.655      -1972.299       6523.2599      7461.2137      13984.474      178885.97      44.4106        44.4106        90.699106          16004 
   3947000   3162.0889      104076.73      6750.6459      96629.75       96117.07       119483.38     -1684.481      -667.86797      3282.7664      6540.9392      7474.1815      14015.121      178385.86      44.369175      44.369175      90.614504          16004 
   3948000   3163.6322      101012.83      6757.749       91079.352      92508.565      119450.58      2534.2685      1827.2338      303.96244      6544.1316      7457.9239      14002.056      178599.94      44.386917      44.386917      90.650738          16004 
   3949000   3153.4496      98247.431      6764.8549      89061.31       89313.799      116367.18      2363.0075     -506.5147       2640.9473      6523.0685      7457.5638      13980.632      178937.15      44.414835      44.414835      90.707753          16004 
   3950000   3172.2869      100911.86      6771.9811      92601.959      91839.985      118293.63     -1688.403       819.10372      140.115        6562.0344      7441.6689      14003.703      178570.08      44.384443      44.384443      90.645686          16004 
   3951000   3175.9778      101122.84      6779.0985      92534.689      91898.252      118935.58      2304.711       2352.1429     -3741.5698      6569.6693      7413.6317      13983.301      178889.78      44.410915      44.410915      90.699749          16004 
   3952000   3160.0408      99824.028      6786.2043      89594.23       91789.628      118088.23      1552.643       2157.3105      1269.9366      6536.7027      7457.9595      13994.662      178701.34      44.395316      44.395316      90.667891          16004 
   3953000   3166.0369      96396.681      6793.3117      87730.665      89271.59       112187.79      2094.9135     -1477.9815      1780.3946      6549.1059      7427.8664      13976.972      178977.78      44.418196      44.418196      90.714618          16004 
   3954000   3174.6556      97276.409      6800.4145      87285.011      88256.738      116287.48      1946.4935      2202.2722     -1643.0563      6566.9341      7399.0079      13965.942      179135.6       44.431248      44.431248      90.741275          16004 
   3955000   3138.6751      96308.26       6807.524       87971.303      85105.162      115848.31     -1107.5035      1516.5106     -340.69413      6492.5067      7465.9614      13958.468      179255.9       44.441192      44.441192      90.761583          16004 
   3956000   3166.458       99559.347      6814.6468      89991.854      90621.23       118064.96     -1767.4631     -1147.1         705.09036      6549.9771      7424.0799      13974.057      178999.45      44.419989      44.419989      90.71828           16004 
   3957000   3148.0744      102473.99      6821.7606      94993.688      94239.054      118189.23      668.46614      1377.6379     -2123.6953      6511.9496      7495.8341      14007.784      178456.11      44.374999      44.374999      90.626397          16004 
   3958000   3166.7771      100711.2       6828.8616      93017.814      92123.594      116992.2       2918.3433     -1393.7311     -742.58275      6550.6372      7442.7923      13993.43       178687.79      44.394193      44.394193      90.665598          16004 
   3959000   3182.0147      99615.488      6835.972       91535.904      91593.631      115716.93      1756.9293      41.22695      -1588.1852      6582.1569      7409.6401      13991.797      178714         44.396364      44.396364      90.670032          16004 
   3960000   3166.5711      104129.54      6843.0827      94531.619      94867.638      122989.37      2067.6998      433.66822     -2237.9671      6550.2109      7462.5341      14012.745      178379.49      44.368647      44.368647      90.613426          16004 
   3961000   3170.1612      103018.48      6850.2025      96327.466      92570.433      120157.55     -1351.9481     -1190.4108      233.05147      6557.6372      7432.6296      13990.267      178736.23      44.398205      44.398205      90.673791          16004 
   3962000   3143.4081      101475.93      6857.3277      93445.719      92180.29       118801.79      465.64145      972.91573     -1063.8174      6502.2972      7490.5107      13992.808      178684.2       44.393897      44.393897      90.664992          16004 
   3963000   3174.1764      101815.32      6864.4345      91248.479      92981.614      121215.88      717.58154     -1745.0058     -4048.4184      6565.9428      7419.2678      13985.211      178793.5       44.402946      44.402946      90.683474          16004 
   3964000   3172.1791      102438.38      6871.5364      93259.267      93270.921      120784.94      2902.9111      3144.3942      1934.2255      6561.8113      7451.0726      14012.884      178336.33      44.365068      44.365068      90.606116          16004 
   3965000   3160.5376      96793.115      6878.6408      87025.112      87439.888      115914.35      727.67579     -2948.7799     -447.4426       6537.7303      7434.4802      13972.21       178981.99      44.418544      44.418544      90.71533           16004 
   3966000   3189.1945      99065.309      6885.7444      90250.126      89183.293      117762.51      2423.851       1554.3415     -2829.9812      6597.0086      7378.0488      13975.057      178925.78      44.413894      44.413894      90.705832          16004 
   3967000   3184.9428      97060.434      6892.8588      89444.439      88683.757      113053.1      -366.65526      678.65748      1683.8639      6588.2138      7377.2224      13965.436      179070.86      44.425895      44.425895      90.730342          16004 
   3968000   3171.5764      99754.52       6899.9617      88968.565      91642.436      118652.56      1581.7351     -5358.4016     -1364.8373      6560.5647      7414.6623      13975.227      178888.03      44.41077       44.41077       90.699453          16004 
   3969000   3173.1496      102038.97      6907.0627      93536.209      96882.75       115697.96      231.69199      2363.9517     -1890.7669      6563.8189      7420.965       13984.784      178741.43      44.398636      44.398636      90.67467           16004 
   3970000   3183.4586      101973.31      6914.1655      93719.412      93105.587      119094.94     -606.57216      2917.2449     -2220.407       6585.1436      7393.695       13978.839      178825.44      44.40559       44.40559       90.688873          16004 
   3971000   3187.6453      98781.581      6921.2607      91183.967      90996.164      114164.61     -288.53587     -1565.1726      1030.7794      6593.804       7380.0792      13973.883      178898.32      44.411622      44.411622      90.701192          16004 
   3972000   3136.9227      97549.941      6928.3649      89281.756      89851.453      113516.61      1477.6289     -1430.1852      1234.2721      6488.8818      7486.3378      13975.22       178861.12      44.408544      44.408544      90.694906          16004 
   3973000   3160.419       96280.556      6935.4747      86475.705      87920.194      114445.77      7.6476486     -118.86066     -243.63296      6537.4851      7394.0231      13931.508      179544.26      44.465009      44.465009      90.810224          16004 
   3974000   3176.0356      102310.32      6942.5771      94764.312      94545.36       117621.28      138.86375      2621.094       195.12276      6569.7887      7422.973       13992.762      178560.45      44.383645      44.383645      90.644056          16004 
   3975000   3178.993       99822.647      6949.6715      93671.137      88724.868      117071.94      2350.1412     -1777.5332     -1155.5922      6575.9064      7373.3716      13949.278      179233.15      44.439312      44.439312      90.757743          16004 
   3976000   3139.0885      99205.426      6956.7612      89497.937      88858.63       119259.71      1151.4142     -372.62828     -1245.8793      6493.3619      7477.8423      13971.204      178882.79      44.410336      44.410336      90.698567          16004 
   3977000   3145.9223      100593.39      6963.8556      90939.318      91891.331      118949.52      782.26861     -2745.9683      2156.1479      6507.498       7456.9478      13964.446      178977.6       44.418182      44.418182      90.714589          16004 
   3978000   3203.4229      99156.301      6970.9469      92112.972      89173.931      116182         467.59194     -506.44019     -4073.3576      6626.4407      7346.2606      13972.701      178831.88      44.406123      44.406123      90.689962          16004 
   3979000   3154.4642      96751.278      6978.0466      87218.544      87561.499      115473.79     -1283.8191      424.82266      1192.7089      6525.1672      7414.0449      13939.212      179374.13      44.450961      44.450961      90.781533          16004 
   3980000   3181.2694      97261.966      6985.1466      86679.733      93027.085      112079.08      1852.1985      2052.6714      429.51652      6580.6152      7392.8729      13973.488      178823.26      44.40541       44.40541       90.688505          16004 
   3981000   3183.1209      98945.002      6992.2536      89156.266      91489.656      116189.08     -1152.239      -617.91648     -597.06443      6584.4451      7373.7261      13958.171      179067.89      44.425649      44.425649      90.72984           16004 
   3982000   3159.8858      99157.318      6999.3479      92550.425      89212.547      115708.98      49.658037     -527.54323      3289.3583      6536.3822      7438.549       13974.931      178804.22      44.403834      44.403834      90.685286          16004 
   3983000   3151.2863      101090.36      7006.4531      94353.929      91443.607      117473.55      719.91981      2077.1452      532.78999      6518.5936      7447.3828      13965.976      178940.16      44.415084      44.415084      90.708262          16004 
   3984000   3176.8964      100609.92      7013.5518      92726.67       92458.939      116644.14      393.01504     -291.34606     -1520.7571      6571.5693      7403.2743      13974.844      178798.43      44.403355      44.403355      90.684308          16004 
   3985000   3170.1749      99911.958      7020.6526      90715.551      91147.601      117872.72      2451.5211      1637.0177      2950.308       6557.6657      7392.3336      13949.999      179180.5       44.43496       44.43496       90.748855          16004 
   3986000   3169.5649      101482.54      7027.7492      91545.549      93215.977      119686.08     -350.33327     -1883.6487     -2175.629       6556.4038      7413.8344      13970.238      178850.66      44.407678      44.407678      90.693138          16004 
   3987000   3166.238       97628.232      7034.8428      87616.781      90682.909      114585.01     -599.5127       446.65863      262.33471      6549.522       7405.0534      13954.575      179100.73      44.428365      44.428365      90.735386          16004 
   3988000   3173.9641      98602.213      7041.9388      90276.218      89385.026      116145.39     -884.64588     -1372.6055      488.62445      6565.5038      7394.3042      13959.808      179013.53      44.421153      44.421153      90.720658          16004 
   3989000   3147.7183      99754.889      7049.04        90761.995      90955.943      117546.73      1026.695       1225.8122      202.25006      6511.213       7447.3836      13958.597      179027.75      44.422329      44.422329      90.72306           16004 
   3990000   3141.5167      97372.006      7056.1384      87963.926      87791.787      116360.31      1906.6764     -201.69204     -1451.755       6498.3846      7459.9519      13958.337      179018.96      44.421603      44.421603      90.721576          16004 
   3991000   3172.6952      100081.87      7063.2416      93435.747      90595.325      116214.54     -2623.9383     -3105.4453      347.3174       6562.8791      7407.8731      13970.752      178816.93      44.404886      44.404886      90.687435          16004 
   3992000   3158.5266      99410.597      7070.336       88679.501      91153.115      118399.17      1273.7894      1310.8541     -311.39611      6533.5704      7422.7527      13956.323      179043         44.423591      44.423591      90.725636          16004 
   3993000   3168.757       97600.383      7077.4345      88752.199      88621.693      115427.26      279.39193      2691.7435      81.328469      6554.7326      7401.3394      13956.072      179046.18      44.423854      44.423854      90.726173          16004 
   3994000   3132.7285      104400.1       7084.5326      97512.836      94303.329      121384.13     -823.75515     -2373.7057      664.0973       6480.2059      7504.055       13984.261      178590.24      44.386114      44.386114      90.649097          16004 
   3995000   3175.4207      102199.53      7091.6298      94958.158      93672.381      117968.06      495.10322      2405.1084     -686.03731      6568.5168      7404.509       13973.026      178747.97      44.399177      44.399177      90.675775          16004 
   3996000   3133.7874      97866.155      7098.7324      89002.175      90711.502      113884.79      701.10616      2071.613      -2867.8145      6482.3963      7471.5926      13953.989      179046.6       44.423889      44.423889      90.726245          16004 
   3997000   3154.8986      100642.3       7105.8252      92402.847      91616.362      117907.69      402.82878      1544.2752     -3047.5519      6526.0658      7435.717       13961.783      178912.5       44.412795      44.412795      90.703589          16004 
   3998000   3150.2784      101719.15      7112.9197      93923.327      95111.849      116122.27      437.19806      3443.2224      3083.9208      6516.5087      7451.5434      13968.052      178809.19      44.404246      44.404246      90.686127          16004 
   3999000   3157.952       96104.671      7120.009       89118.732      86178.076      113017.21      699.90701     -1551.6227      72.967274      6532.3819      7405.5619      13937.944      179274.79      44.442753      44.442753      90.76477           16004 
   4000000   3139.0278      103379.99      7127.1029      94277.466      97496.201      118366.3       373.14106      744.61317      1391.7058      6493.2362      7471.0932      13964.329      178847.52      44.407418      44.407418      90.692606          16004 
Loop time of 7127.1 on 8 procs for 1000000 steps with 16004 atoms

Performance: 6.061 ns/day, 3.960 hours/ns, 140.309 timesteps/s
61.1% CPU use with 1 MPI tasks x 8 OpenMP threads

MPI task timing breakdown:
Section |  min time  |  avg time  |  max time  |%varavg| %total
---------------------------------------------------------------
Pair    | 6825.9     | 6825.9     | 6825.9     |   0.0 | 95.77
Neigh   | 10.062     | 10.062     | 10.062     |   0.0 |  0.14
Comm    | 43.782     | 43.782     | 43.782     |   0.0 |  0.61
Output  | 1.3467     | 1.3467     | 1.3467     |   0.0 |  0.02
Modify  | 218.86     | 218.86     | 218.86     |   0.0 |  3.07
Other   |            | 27.14      |            |       |  0.38

Nlocal:          16004 ave       16004 max       16004 min
Histogram: 1 0 0 0 0 0 0 0 0 0
Nghost:          13959 ave       13959 max       13959 min
Histogram: 1 0 0 0 0 0 0 0 0 0
Neighs:              0 ave           0 max           0 min
Histogram: 1 0 0 0 0 0 0 0 0 0
FullNghs:  1.33649e+06 ave 1.33649e+06 max 1.33649e+06 min
Histogram: 1 0 0 0 0 0 0 0 0 0

Total # of neighbors = 1336494
Ave neighs/atom = 83.509998
Neighbor list builds = 29837
Dangerous builds = 0
Total wall time: 7:14:34
