
atom_style atomic
units metal
boundary p p p
#atom_modify sort 0 0.0
newton on

read_data data.lammps
Reading data file ...
  orthogonal box = (0 0 0) to (43.790145 43.790145 87.58029)
  1 by 1 by 1 MPI processor grid
  reading atoms ...
  16004 atoms
  read_data CPU = 0.040 seconds
# replicate 10 10 20

### interactions

pair_style flare
pair_coeff * * lmp.flare
Reading potential file lmp.flare with DATE: Thu

# compute unc all flare/std/atom L_inv_lmp.flare sparse_desc_lmp.flare
# compute MaxUnc all reduce max c_unc

mass 1 12.011000
mass 2 28.085000

thermo_style custom step temp press cpu pxx pyy pzz pxy pxz pyz ke pe etotal vol lx ly lz atoms    #c_MaxUnc
thermo 1000
timestep 0.0005
restart 100000 restart_*.dat

#################### Equilibrate at P and T_es ##############################
velocity all create $T 41928459 rot yes dist gaussian
velocity all create 3200 41928459 rot yes dist gaussian
fix mom all momentum 1000 linear 1 1 1 angular

fix 1 all npt temp $T $T $(100.0*dt) iso $P $P $(1000.0*dt)
fix 1 all npt temp 3200 $T $(100.0*dt) iso $P $P $(1000.0*dt)
fix 1 all npt temp 3200 3200 $(100.0*dt) iso $P $P $(1000.0*dt)
fix 1 all npt temp 3200 3200 0.050000000000000002776 iso $P $P $(1000.0*dt)
fix 1 all npt temp 3200 3200 0.050000000000000002776 iso 600000 $P $(1000.0*dt)
fix 1 all npt temp 3200 3200 0.050000000000000002776 iso 600000 600000 $(1000.0*dt)
fix 1 all npt temp 3200 3200 0.050000000000000002776 iso 600000 600000 0.5
dump 1 all custom 1000 1equil.bin id type x y z vx vy vz
run   10000 # report performance
Neighbor list info ...
  update every 1 steps, delay 10 steps, check yes
  max neighbors/atom: 2000, page size: 100000
  master list distance cutoff = 6
  ghost atom cutoff = 6
  binsize = 6, bins = 8 8 15
  1 neighbor lists, perpetual/occasional/extra = 1 0 0
  (1) pair flare/kk, perpetual
      attributes: full, newton on, kokkos_device
      pair build: full/bin/kk/device
      stencil: full/bin/3d
      bin: kk/device
Per MPI rank memory allocation (min/avg/max) = 15.9 | 15.9 | 15.9 Mbytes
   Step          Temp          Press           CPU            Pxx            Pyy            Pzz            Pxy            Pxz            Pyz           KinEng         PotEng         TotEng         Volume           Lx             Ly             Lz          Atoms   
         0   3200           62295.48       0              61920.045      62313.853      62652.542     -790.80119      8.8236366     -494.42354      6619.3603     -4000.2205      2619.1398      167941.93      43.790145      43.790145      87.58029           16004 
      1000   3236.2501      598379.17      6.6590659      599457.88      598108.77      597570.85      542.03754     -203.655        4488.5748      6694.3454      6987.2504      13681.596      142086.14      41.416549      41.416549      82.833098          16004 
      2000   3160.363       598197.22      13.34751       598700.31      597878.96      598012.39      2605.4611     -1010.5961      2486.124       6537.3692      6720.3246      13257.694      141876.06      41.396127      41.396127      82.792254          16004 
      3000   3218.73        601133.71      20.03843       601627.15      600994.67      600779.31      1420.7264     -1922.655      -0.98162197     6658.1043      6838.6451      13496.749      141908.85      41.399315      41.399315      82.79863           16004 
      4000   3176.263       599078.23      26.736917      599285.7       598411.1       599537.89     -2703.9067     -2540.8082     -979.32358      6570.2592      6775.957       13346.216      141881.17      41.396623      41.396623      82.793247          16004 
      5000   3239.8789      600813.15      33.436308      601383.27      600835.87      600220.3       1106.5214      2024.0855     -1221.5439      6701.8519      6789.1756      13491.027      141832.41      41.391881      41.391881      82.783761          16004 
      6000   3199.4326      599610.57      40.135207      599516.31      601605.38      597710.03     -205.2092      -8425.7708     -2934.4755      6618.1866      6798.2188      13416.405      141811.49      41.389846      41.389846      82.779692          16004 
      7000   3193.8901      600446.67      46.82167       602523.47      602000.83      596815.72      4697.639      -5362.3077      1108.7506      6606.7216      6843.4931      13450.215      141808.38      41.389543      41.389543      82.779086          16004 
      8000   3182.7838      597678.96      53.507242      597388.66      596358.81      599289.42      5304.7907     -2421.7458      1583.8         6583.7478      6838.5762      13422.324      141860.2       41.394584      41.394584      82.789168          16004 
      9000   3181.5932      602136.08      60.203212      602314.28      603659.61      600434.35      3192.539      -1787.2153     -1472.7688      6581.285       6880.594       13461.879      141721.04      41.381044      41.381044      82.762088          16004 
     10000   3230.5481      598756.88      66.896864      596811.94      599921         599537.7      -171.84797      3417.0713      1662.5761      6682.5505      6770.8867      13453.437      141816.64      41.390347      41.390347      82.780694          16004 
Loop time of 66.8969 on 8 procs for 10000 steps with 16004 atoms

Performance: 6.458 ns/day, 3.716 hours/ns, 149.484 timesteps/s
62.9% CPU use with 1 MPI tasks x 8 OpenMP threads

MPI task timing breakdown:
Section |  min time  |  avg time  |  max time  |%varavg| %total
---------------------------------------------------------------
Pair    | 63.641     | 63.641     | 63.641     |   0.0 | 95.13
Neigh   | 0.091223   | 0.091223   | 0.091223   |   0.0 |  0.14
Comm    | 0.40547    | 0.40547    | 0.40547    |   0.0 |  0.61
Output  | 0.025681   | 0.025681   | 0.025681   |   0.0 |  0.04
Modify  | 2.4449     | 2.4449     | 2.4449     |   0.0 |  3.65
Other   |            | 0.2891     |            |       |  0.43

Nlocal:          16004 ave       16004 max       16004 min
Histogram: 1 0 0 0 0 0 0 0 0 0
Nghost:          13897 ave       13897 max       13897 min
Histogram: 1 0 0 0 0 0 0 0 0 0
Neighs:              0 ave           0 max           0 min
Histogram: 1 0 0 0 0 0 0 0 0 0
FullNghs:  1.62752e+06 ave 1.62752e+06 max 1.62752e+06 min
Histogram: 1 0 0 0 0 0 0 0 0 0

Total # of neighbors = 1627522
Ave neighs/atom = 101.6947
Neighbor list builds = 221
Dangerous builds = 0
run  990000
Per MPI rank memory allocation (min/avg/max) = 16.2 | 16.2 | 16.2 Mbytes
   Step          Temp          Press           CPU            Pxx            Pyy            Pzz            Pxy            Pxz            Pyz           KinEng         PotEng         TotEng         Volume           Lx             Ly             Lz          Atoms   
     10000   3230.5481      598756.88      0              596811.94      599921         599537.7      -171.84797      3417.0713      1662.5761      6682.5505      6770.8867      13453.437      141816.64      41.390347      41.390347      82.780694          16004 
     11000   3192.7662      601217.47      6.7040746      601377.73      602164.47      600110.2      -534.56108      1278.1567     -1448.7525      6604.3969      6865.5243      13469.921      141734.75      41.382379      41.382379      82.764757          16004 
     12000   3178.1292      599655.98      13.415934      598358.78      598829         601780.18     -802.49041      518.0939       2203.3554      6574.1195      6872.5949      13446.714      141778.33      41.386619      41.386619      82.773239          16004 
     13000   3204.127       599708.61      20.106798      599873.96      600220.15      599031.73      543.23663      703.55751      355.25504      6627.8973      6865.6942      13493.591      141853.62      41.393945      41.393945      82.787889          16004 
     14000   3200.2398      601788.67      26.797409      602444.72      601169.97      601751.31     -1254.4652      2221.08        2037.7426      6619.8563      6874.4682      13494.325      141726.49      41.381574      41.381574      82.763149          16004 
     15000   3203.8211      594717.76      33.485934      593645.67      595009.79      595497.81     -1167.836       2708.6602      1258.0659      6627.2645      6715.3586      13342.623      142004.4       41.408605      41.408605      82.817211          16004 
     16000   3257.0973      606328.21      40.178492      605912.4       607986.18      605086.04      1613.5947      587.28323     -2475.1736      6737.4689      6903.3802      13640.849      141580.54      41.367365      41.367365      82.73473           16004 
     17000   3214.0996      597930.42      46.870879      597073.54      599047.68      597670.04      811.778       -758.00275     -1064.6355      6648.526       6733.7351      13382.261      141905.08      41.398949      41.398949      82.797899          16004 
     18000   3186.7561      600825.5       53.579254      600737.5       600046.78      601692.22      1118.2529     -888.3345      -2421.9492      6591.9647      6918.5675      13510.532      141723.45      41.381279      41.381279      82.762558          16004 
     19000   3181.4366      597796.4       60.272055      596438.65      598520.84      598429.72      2402.0922      1421.3935      5296.2158      6580.9609      6789.0336      13369.995      141874.57      41.395982      41.395982      82.791964          16004 
     20000   3209.9909      602652.54      66.958533      601634.99      602733.92      603588.71      3023.1185     -1092.3714      952.81464      6640.0271      6943.0058      13583.033      141736.86      41.382584      41.382584      82.765168          16004 
     21000   3199.6933      597617.89      73.645225      598493.83      594892.27      599467.57     -3519.9156      227.30066     -1617.8605      6618.7258      6779.9845      13398.71       141900.1       41.398465      41.398465      82.796929          16004 
     22000   3193.8103      605950.65      80.336232      608035.8       605193.42      604622.71     -355.41628      1761.908      -1487.7972      6606.5566      6830.4831      13437.04       141582.59      41.367565      41.367565      82.735129          16004 
     23000   3209.2932      594918.22      87.0311        593716.77      595476.48      595561.41     -3307.6213     -244.87303     -470.3924       6638.5838      6765.6209      13404.205      141969.52      41.405214      41.405214      82.810428          16004 
     24000   3181.52        601897.56      93.732401      601904.93      602896.38      600891.37      2324.4416     -2930.3839     -360.52038      6581.1336      6784.2612      13365.395      141695.32      41.37854       41.37854       82.75708           16004 
     25000   3209.663       599287.93      100.43565      599337.99      600427.91      598097.87     -898.13432     -307.89315      2716.2228      6639.3487      6803.1637      13442.512      141824.77      41.391138      41.391138      82.782275          16004 
     26000   3170.0325      599902.97      107.12807      600805.8       599956.29      598946.83      2088.1805     -588.26507     -2534.3049      6557.371       6882.7969      13440.168      141758.85      41.384723      41.384723      82.769447          16004 
     27000   3179.2175      598775.97      113.81472      601120.71      597072.12      598135.07      35.485015     -1571.9824     -2887.6689      6576.3707      6816.0799      13392.451      141771.16      41.385922      41.385922      82.771844          16004 
     28000   3200.9112      599538.26      120.5038       602568.49      598820.59      597225.7      -769.46625      2641.6911      345.06521      6621.2453      6843.0529      13464.298      141725.73      41.3815        41.3815        82.763001          16004 
     29000   3235.08        598774.75      127.18421      599618.71      598630.82      598074.73      213.85618      1604.0677      3001.0066      6691.925       6881.9094      13573.834      141854.15      41.393996      41.393996      82.787992          16004 
     30000   3164.9418      593947.97      133.87643      595807.06      593159.77      592877.07     -1180.1195     -1196.2048      3915.3689      6546.8407      6792.3742      13339.215      141967.04      41.404974      41.404974      82.809947          16004 
     31000   3223.5575      603692.32      140.57891      605322.84      604004.99      601749.14      3711.3403     -380.44624      1667.0785      6668.0901      6900.994       13569.084      141706.89      41.379667      41.379667      82.759334          16004 
     32000   3186.6368      599876.42      147.25529      600255.57      599578.71      599794.97     -3381.0223     -2671.1487     -1572.9309      6591.7179      6837.6136      13429.332      141757.46      41.384588      41.384588      82.769177          16004 
     33000   3228.7404      601483.03      153.92897      602080.42      602437.63      599931.02     -4833.5722      2067.3978     -837.37375      6678.8114      6834.817       13513.628      141750.14      41.383876      41.383876      82.767753          16004 
     34000   3209.3053      599788.61      160.60201      599489.03      599375.81      600500.98     -2272.9744     -1780.5765     -532.20215      6638.6088      6873.541       13512.15       141779.52      41.386736      41.386736      82.773471          16004 
     35000   3194.8622      601166.41      167.29504      598518.66      602567.72      602412.83      2086.6569      1485.7133      905.68938      6608.7325      6807.3408      13416.073      141802.01      41.388924      41.388924      82.777848          16004 
     36000   3168.0594      599189.87      173.98507      597557.64      598710.96      601301.01      2871.3823      1347.3931     -223.2999       6553.2895      6878.3461      13431.636      141845.43      41.393147      41.393147      82.786295          16004 
     37000   3236.3148      603706.57      180.68365      603281.86      604836.68      603001.16      2330.9549      1171.0759     -3297.4123      6694.4793      6866.1615      13560.641      141696.22      41.378628      41.378628      82.757257          16004 
     38000   3201.0383      596177.93      187.37646      595391.22      596525.41      596617.17      1392.5444      822.71942      1233.3154      6621.5081      6762.5343      13384.042      141931.42      41.401511      41.401511      82.803021          16004 
     39000   3172.5808      600968.48      194.05005      602013.93      600017.53      600873.98     -1413.9117     -1028.5507      777.58477      6562.6423      6751.6156      13314.258      141695.29      41.378537      41.378537      82.757075          16004 
     40000   3183.1282      595988.36      200.71876      595178.87      595604.15      597182.07     -3008.7671     -784.10898     -343.57729      6584.4602      6850.1856      13434.646      141928.22      41.401199      41.401199      82.802398          16004 
     41000   3194.1044      604425.35      207.40117      602165.73      605697.49      605412.84      1433.577      -1706.5987      55.141257      6607.1651      6818.3698      13425.535      141666.88      41.375772      41.375772      82.751544          16004 
     42000   3220.2923      595355.13      214.08679      595079.79      594996.13      595989.45     -3726.5315      3299.0409      427.23538      6661.3359      6782.395       13443.731      141933.55      41.401718      41.401718      82.803435          16004 
     43000   3202.4841      605351.21      220.77539      604522.24      605037.8       606493.59     -496.90394      316.40159      404.73314      6624.4988      6895.6213      13520.12       141620.03      41.371211      41.371211      82.742421          16004 
     44000   3197.5604      596750.38      227.47798      597553.23      595331.48      597366.44     -1423.7638     -974.64654      971.08442      6614.3139      6774.3787      13388.693      141861.7       41.39473       41.39473       82.789461          16004 
     45000   3196.1881      603374.98      234.15268      603478.57      603565.3       603081.05     -1994.9476     -718.82487      1245.4934      6611.4752      6853.7913      13465.267      141653.74      41.374493      41.374493      82.748986          16004 
     46000   3187.8587      596097.28      240.81933      596292.43      594927.16      597072.26     -119.6871      -54.392662      5652.216       6594.2455      6856.218       13450.463      141897.18      41.398181      41.398181      82.796362          16004 
     47000   3185.6538      601277.25      247.49203      601664.1       599466.7       602700.94     -323.42163     -4053.8879     -3230.5096      6589.6844      6882.5832      13472.268      141727.19      41.381643      41.381643      82.763286          16004 
     48000   3221.9896      600551.62      254.18242      602509.97      600256.9       598887.98      1657.5189     -2051.8186      1318.6195      6664.8469      6810.9857      13475.833      141762.62      41.385091      41.385091      82.770182          16004 
     49000   3217.4171      599193.96      260.8668       599717.33      599104.4       598760.16      3116.8716      2126.4         1157.8774      6655.3885      6821.0501      13476.439      141834.47      41.392081      41.392081      82.784163          16004 
     50000   3168.8788      603618.35      267.56543      604352.8       604312.29      602189.95     -1315.6906     -3430.9042      2323.6505      6554.9845      6869.7413      13424.726      141599.09      41.369171      41.369171      82.738343          16004 
     51000   3194.3163      593873.44      274.25724      594023.07      594970.85      592626.4       193.9909      -357.32226      2438.828       6607.6033      6773.7262      13381.33       142019.91      41.410112      41.410112      82.820225          16004 
     52000   3225.318       604163.94      280.93547      602537.48      604899.44      605054.9       397.38106     -227.58647      3876.8667      6671.7319      6894.616       13566.348      141642.71      41.373419      41.373419      82.746838          16004 
     53000   3187.5532      596902.51      287.61817      595008.05      597040.41      598659.08     -1314.7425     -2081.0797     -2221.2283      6593.6134      6777.9839      13371.597      141879.05      41.396417      41.396417      82.792834          16004 
     54000   3210.0476      604088.41      294.30634      603399.72      604717.49      604148.01      1407.9043      1126.2713     -405.11948      6640.1442      6962.4318      13602.576      141686.36      41.377668      41.377668      82.755336          16004 
     55000   3177.8758      597768.9       300.99118      597461.37      595876.12      599969.21      2288.8997     -4448.5506     -3947.1605      6573.5953      6833.0072      13406.602      141816.47      41.39033       41.39033       82.78066           16004 
     56000   3221.7165      600465.15      307.68776      601646.68      599470.95      600277.82     -130.61951     -2447.6378     -4357.0792      6664.282       6887.3357      13551.618      141795.15      41.388256      41.388256      82.776512          16004 
     57000   3201.9069      602092.2       314.39435      600027.06      604179.25      602070.3      -1816.3215     -1562.8136      1731.7927      6623.3048      6784.8001      13408.105      141715.22      41.380477      41.380477      82.760955          16004 
     58000   3179.03        596928.55      321.07288      597508.5       596358.11      596919.03     -898.54384      436.97307      2656.1903      6575.9829      6746.5762      13322.559      141886.03      41.397096      41.397096      82.794192          16004 
     59000   3172.6797      602929.33      327.75352      600345.06      604800.29      603642.64     -1852.7083      906.60265     -3790.0125      6562.8468      6933.04        13495.887      141664.89      41.375578      41.375578      82.751157          16004 
     60000   3174.2773      595790.11      334.43917      596757.45      596574.91      594037.97     -1259.1086     -2831.2772     -702.79101      6566.1517      6819.0748      13385.226      141911.62      41.399585      41.399585      82.799169          16004 
     61000   3202.1627      603115.55      341.1249       600798.63      606247.51      602300.52     -1485.9612      2204.7221      1183.3817      6623.834       6895.2739      13519.108      141682.94      41.377336      41.377336      82.754671          16004 
     62000   3226.1825      595591.4       347.81136      593843.18      595757.77      597173.25     -6044.6219      2368.6267      255.91968      6673.5201      6822.9615      13496.482      141952.73      41.403582      41.403582      82.807164          16004 
     63000   3196.8184      604683.05      354.51669      605623.15      604140.39      604285.6       1308.0094     -2699.3208      3883.4576      6612.779       6867.7436      13480.523      141568.58      41.3662        41.3662        82.732399          16004 
     64000   3180.9052      596168.71      361.19232      596929.83      595656.95      595919.35      1315.7651      2860.9672     -4803.6274      6579.8619      6779.1455      13359.007      141860.03      41.394567      41.394567      82.789135          16004 
     65000   3185.303       603859.51      367.86694      602452.15      603446.67      605679.7       4685.2175     -1271.5941      646.99472      6588.9589      6919.0705      13508.029      141610.07      41.370241      41.370241      82.740481          16004 
     66000   3233.7515      593197.01      374.54224      592058.17      592790.4       594742.47     -1554.2354      2825.2838      821.12638      6689.1769      6757.7674      13446.944      142018.17      41.409944      41.409944      82.819888          16004 
     67000   3221.9886      603520.61      381.22149      602891.58      605259.44      602410.82      95.175569      798.14073      2247.1281      6664.8448      6924.572       13589.417      141711.21      41.380088      41.380088      82.760175          16004 
     68000   3166.2537      600339.82      387.89982      599886         598516.1       602617.37     -3328.8561     -906.49068     -2249.6679      6549.5544      6842.3937      13391.948      141823.21      41.390986      41.390986      82.781971          16004 
     69000   3211.7142      601587.74      394.59527      601265.38      601868.69      601629.16     -133.75851      1449.8095     -825.65793      6643.5917      6914.2943      13557.886      141766.9       41.385507      41.385507      82.771015          16004 
     70000   3205.5627      599200.38      401.28771      598091.19      598563.77      600946.18     -505.94002      4206.1535     -581.33627      6630.867       6798.2071      13429.074      141824.02      41.391065      41.391065      82.78213           16004 
     71000   3201.7831      598420.99      407.96806      596829.16      600777.67      597656.14     -1403.6677     -2698.5035      178.09713      6623.0487      6839.5945      13462.643      141836.24      41.392253      41.392253      82.784506          16004 
     72000   3185.0849      603376.36      414.64433      603093.54      603912.69      603122.86     -1509.0205     -1819.9105     -1514.3929      6588.5078      6925.087       13513.595      141676.97      41.376754      41.376754      82.753508          16004 
     73000   3109.7868      594095.17      421.32527      593739.94      594109.33      594436.24     -811.14128      525.61099     -1969.7253      6432.7497      6746.8196      13179.569      141903.78      41.398823      41.398823      82.797646          16004 
     74000   3234.0837      603808.01      428.00883      603601.88      603489.4       604332.76      2418.114      -2963.3775      4550.5648      6689.8642      6831.1356      13521          141658.32      41.374938      41.374938      82.749877          16004 
     75000   3228.2184      595508.61      434.69775      594754.85      596568.62      595202.38     -45.590767      2491.6446     -1305.363       6677.7314      6767.2229      13444.954      141989.2       41.407127      41.407127      82.814255          16004 
     76000   3183.4722      605717.45      441.39856      605411.11      605432.32      606308.92     -3307.9597     -3239.539      -162.2136       6585.1718      6897.2905      13482.462      141620.42      41.371248      41.371248      82.742496          16004 
     77000   3227.9019      595756.06      448.07934      595826.09      595605.82      595836.27      2521.2092     -219.51329      1492.0534      6677.0767      6805.8067      13482.883      142019.55      41.410077      41.410077      82.820155          16004 
     78000   3181.7816      603055.92      454.75562      603955.14      601827.43      603385.19      3504.9281     -550.54212      4780.0617      6581.6746      6875.1873      13456.862      141749.21      41.383786      41.383786      82.767571          16004 
     79000   3191.5985      597484.32      461.43387      597181.14      599044.63      596227.2      -131.70834     -1481.1449      1434.3593      6601.9815      6769.0878      13371.069      141803.79      41.389096      41.389096      82.778193          16004 
     80000   3210.3521      599451.46      468.11249      599152.7       599698.72      599502.97      2820.9782      306.6272       4253.546       6640.7741      6806.2677      13447.042      141821.09      41.39078       41.39078       82.78156           16004 
     81000   3200.7455      602349.68      474.79094      604475.86      601334.56      601238.63     -348.26688     -2587.6453     -2205.6794      6620.9023      6860.3793      13481.282      141722.79      41.381214      41.381214      82.762429          16004 
     82000   3201.23        597506.82      481.48203      599252.45      594362.98      598905.02      1836.8952      2223.8125      1302.8484      6621.9047      6827.2195      13449.124      141900.72      41.398525      41.398525      82.797051          16004 
     83000   3212.0235      601256.68      488.17902      600373.74      602682.44      600713.87     -4370.5769      2396.9972     -182.82958      6644.2316      6831.4412      13475.673      141754.14      41.384265      41.384265      82.76853           16004 
     84000   3213.2813      598559.7       494.85617      597815.16      599835.81      598028.12      2854.1896     -251.20515     -3650.5214      6646.8334      6766.1856      13413.019      141851.73      41.39376       41.39376       82.78752           16004 
     85000   3187.5395      603869.81      501.53596      602875.64      604914.38      603819.4      -183.23991      1887.1217      142.87357      6593.5853      6855.2323      13448.818      141665.9       41.375677      41.375677      82.751354          16004 
     86000   3203.2597      596042.47      508.21576      597528.17      594621.65      595977.59     -3581.21       -7367.7079      1014.3254      6626.1033      6798.2964      13424.4        141944.36      41.402769      41.402769      82.805538          16004 
     87000   3213.9488      602944.55      514.89021      600945.48      604096.53      603791.65     -1492.6308      1340.9864      3644.2649      6648.2141      6828.6563      13476.87       141691.59      41.378177      41.378177      82.756355          16004 
     88000   3203.5191      597795.35      521.56643      598261.29      596851.64      598273.12      687.68546     -1738.0489      2880.6772      6626.6397      6736.9585      13363.598      141841.9       41.392805      41.392805      82.785609          16004 
     89000   3189.8277      601122.17      528.2413       599664.94      600998.17      602703.38     -3345.1354      1862.5195     -2015.2601      6598.3185      6904.7422      13503.061      141720.73      41.381014      41.381014      82.762027          16004 
     90000   3195.5151      599959.56      534.91907      600574.04      600585.67      598718.95     -639.77059      1291.732       71.645296      6610.083       6803.9113      13413.994      141752.43      41.384099      41.384099      82.768198          16004 
     91000   3187.7178      597716.44      541.59052      596001.61      598015         599132.7       993.17897      4537.6218     -4520.6898      6593.954       6845.3279      13439.282      141853.7       41.393951      41.393951      82.787903          16004 
     92000   3211.1482      603719.76      548.26612      602943         603945.38      604270.91      2793.2851      1102.7895     -3768.3636      6642.421       6759.7909      13402.212      141683.42      41.377382      41.377382      82.754764          16004 
     93000   3205.9691      599238.17      554.92868      599406.55      600118.62      598189.35     -2302.9729     -1289.3284      1014.2844      6631.7078      6849.1896      13480.897      141816.64      41.390346      41.390346      82.780693          16004 
     94000   3219.0286      601805.24      561.58956      599738.4       601293.75      604383.57     -1929.4873      1997.7278      855.03254      6658.7218      6780.0516      13438.773      141700.43      41.379038      41.379038      82.758076          16004 
     95000   3216.4848      594000.11      568.24885      593929.45      594521.78      593549.09     -4710.1637     -2005.4811      4695.0239      6653.46        6790.2215      13443.681      142014.99      41.409635      41.409635      82.819269          16004 
     96000   3196.3989      604660.09      574.91204      606369.41      603747.34      603863.51      1419.2655      1933.9395     -1377.5738      6611.9113      6844.7241      13456.635      141592.36      41.368516      41.368516      82.737031          16004 
     97000   3178.9096      597852.02      581.57904      597386.93      599255.51      596913.61      3299.4497     -1073.8712      218.09003      6575.7338      6866.9683      13442.702      141853.45      41.393928      41.393928      82.787856          16004 
     98000   3181.6117      603643.49      588.24954      602266.99      603165.05      605498.41      535.24949     -1173.9035     -2272.1205      6581.3232      6810.5188      13391.842      141591.22      41.368405      41.368405      82.736809          16004 
     99000   3188.4515      594995.42      594.90606      594916.29      594356.55      595713.43      2965.78        467.38733     -1682.7423      6595.4716      6792.1746      13387.646      141971.22      41.40538       41.40538       82.81076           16004 
    100000   3166.1326      602747.39      601.57104      603157.32      602834.91      602249.94      1440.2113      385.32959     -780.63156      6549.304       6780.015       13329.319      141651.16      41.374242      41.374242      82.748484          16004 
    101000   3184.9098      597826.82      608.22793      596685.04      597596.92      599198.51     -467.68892     -2603.042      -2809.8362      6588.1454      6829.9151      13418.061      141863.8       41.394935      41.394935      82.789869          16004 
    102000   3193.5419      600196.19      614.88674      600485.16      599715.5       600387.91     -3659.1769     -3018.2474     -650.67249      6606.0014      6977.373       13583.374      141805.08      41.389222      41.389222      82.778443          16004 
    103000   3182.0698      602761.08      621.54905      603305.85      601369.96      603607.42     -1444.3736     -994.97697      477.78027      6582.2709      6837.1857      13419.457      141646.68      41.373806      41.373806      82.747611          16004 
    104000   3193.118       595748.59      628.20975      597177.44      596224.8       593843.53      2155.744      -2228.725       3081.3517      6605.1246      6746.8965      13352.021      141916.72      41.400081      41.400081      82.800161          16004 
    105000   3178.5388      604345.52      634.86677      604331.18      602936.82      605768.55     -2506.0741     -240.94849      606.51172      6574.9667      6928.6106      13503.577      141652.15      41.374338      41.374338      82.748676          16004 
    106000   3178.9795      598221.54      641.52868      596581.13      598605.93      599477.54      975.20921     -1806.0247      956.8242       6575.8784      6770.5473      13346.426      141791.74      41.387924      41.387924      82.775848          16004 
    107000   3192.1717      601506.91      648.18888      601525.74      603157.29      599837.7      -1028.4188     -3026.725      -2039.9792      6603.167       6889.8767      13493.044      141760.07      41.384843      41.384843      82.769685          16004 
    108000   3201.3141      595187.27      654.85057      593768.54      594892.69      596900.59     -1950.2996     -256.45092     -562.31817      6622.0786      6726.1261      13348.205      141909.96      41.399424      41.399424      82.798848          16004 
    109000   3206.903       606019.1       661.51116      607375.07      606389.2       604293.01      2779.1316      4142.7199     -4157.8905      6633.6394      6928.2918      13561.931      141612.05      41.370433      41.370433      82.740867          16004 
    110000   3189.976       597222.49      668.17515      598128.24      595427.79      598111.45     -2563.6493     -4853.6754     -135.13953      6598.6251      6779.9116      13378.537      141869.64      41.395503      41.395503      82.791006          16004 
    111000   3203.1784      600028.15      674.83924      597865.96      601754.18      600464.3       473.57279     -563.77879     -749.67734      6625.9351      6884.2052      13510.14       141782.1       41.386986      41.386986      82.773973          16004 
    112000   3142.7569      601675.27      681.50611      601580.45      602284.9       601160.45     -551.5761       459.62324     -2195.4606      6500.9501      6803.5474      13304.497      141741.99      41.383083      41.383083      82.766167          16004 
    113000   3208.666       597006.93      688.17301      598324.51      596041.21      596655.07      3349.7547     -854.39291     -4370.165       6637.2863      6833.8421      13471.128      141870.46      41.395582      41.395582      82.791164          16004 
    114000   3170.9229      602294.84      694.84253      602192.23      600845.52      603846.78      1301.287      -2279.6174      3368.1189      6559.2128      6811.7412      13370.954      141685.37      41.377572      41.377572      82.755144          16004 
    115000   3187.2035      597188.75      701.51976      597880.73      596823.24      596862.27      946.24001     -7344.9683     -10.338466      6592.8902      6843.1028      13435.993      141870.2       41.395557      41.395557      82.791113          16004 
    116000   3207.0735      601303.5       708.19697      599779.6       603950.29      600180.61      2286.7963      2617.4747      2419.4245      6633.9921      6848.5016      13482.494      141798.27      41.38856       41.38856       82.77712           16004 
    117000   3245.5217      601687.37      714.87299      601892.89      601380.21      601789.02      4789.6105     -1396.393      -1175.1388      6713.5243      6793.3008      13506.825      141761.28      41.38496       41.38496       82.769921          16004 
    118000   3211.089       596899.65      721.55068      594001.89      597844.71      598852.33      2067.7006     -188.09471      2292.506       6642.2984      6802.5771      13444.876      141887.28      41.397218      41.397218      82.794436          16004 
    119000   3136.1641      601177.33      728.22879      602183.35      600709.24      600639.4       184.28631     -2545.7623     -1363.959       6487.3126      6830.7079      13318.021      141729.36      41.381854      41.381854      82.763708          16004 
    120000   3207.7396      598292.66      734.90325      598956.65      597999.67      597921.66     -2703.4137     -292.30371     -414.66106      6635.37        6802.9707      13438.341      141835.46      41.392177      41.392177      82.784355          16004 
    121000   3165.182       601310.31      741.58016      601417.33      600078.53      602435.07     -743.98939     -1294.4701      3791.0796      6547.3376      6804.4682      13351.806      141700.15      41.379011      41.379011      82.758022          16004 
    122000   3215.2092      596339.15      748.26009      595959.21      597210.55      595847.68     -1543.482      -451.23541     -1219.2334      6650.8214      6753.9802      13404.802      141982.64      41.40649       41.40649       82.812981          16004 
    123000   3213.2432      604749.83      754.94263      603889.03      606712.49      603647.98     -329.64698      204.88161     -2401.9955      6646.7545      6939.0066      13585.761      141698.84      41.378884      41.378884      82.757767          16004 
    124000   3205.2049      596772.87      761.62538      595054.64      597936.45      597327.53      735.75678     -3943.4213     -3223.0897      6630.1268      6731.3351      13361.462      141884.16      41.396914      41.396914      82.793829          16004 
    125000   3227.7909      603847.22      768.30727      604203.24      605775.17      601563.27     -648.42232      3291.6992     -1956.3112      6676.8472      6855.1648      13532.012      141688.98      41.377923      41.377923      82.755846          16004 
    126000   3176.0981      597528.14      774.98773      599223.11      598455.33      594905.99      684.58871     -850.50519     -602.78629      6569.918       6857.7014      13427.619      141962.56      41.404538      41.404538      82.809076          16004 
    127000   3163.4857      601880.34      781.67185      601240.34      601072.19      603328.48     -201.74933      1517.7119      3118.8142      6543.8286      6852.307       13396.136      141645.79      41.373719      41.373719      82.747438          16004 
    128000   3183.593       598063.43      788.35645      595740.89      597418.2       601031.19      2371.6141      94.552406      2558.1754      6585.4217      6848.8767      13434.298      141874.88      41.396012      41.396012      82.792023          16004 
    129000   3204.7539      601338.93      795.03825      599738.26      602062.68      602215.85      2691.2682      543.35306      3822.7733      6629.194       6831.1746      13460.369      141716.37      41.38059       41.38059       82.76118           16004 
    130000   3208.2687      596211.38      801.72206      596163.71      596545.5       595924.93      1643.3045      1021.5135     -2716.3898      6636.4646      6798.0536      13434.518      141910.73      41.399498      41.399498      82.798997          16004 
    131000   3192.0706      603072.61      808.40482      602944.71      605078.79      601194.34      1624.8131      3523.8064      2819.2399      6602.9579      6861.3876      13464.345      141683.77      41.377416      41.377416      82.754833          16004 
    132000   3213.7113      598570.91      815.08862      599416.69      598058.82      598237.22     -2929.956      -573.67394     -1178.1283      6647.7228      6873.7331      13521.456      141881.9       41.396695      41.396695      82.79339           16004 
    133000   3191.3964      602127.6       821.77314      600668.81      602608.14      603105.86      365.77487     -396.70679      2630.8824      6601.5634      6824.2975      13425.861      141767.92      41.385607      41.385607      82.771214          16004 
    134000   3213.6358      601837.57      828.45593      601137.03      601769.27      602606.42     -1784.7075     -530.5085      -2916.0068      6647.5667      6799.6061      13447.173      141728.41      41.381761      41.381761      82.763523          16004 
    135000   3180.2313      600474.3       835.13028      600268.71      600929.85      600224.33     -5260.9437     -1675.5117     -364.45571      6578.4678      6809.4749      13387.943      141807.7       41.389477      41.389477      82.778955          16004 
    136000   3198.1873      603948.06      841.80866      603169.56      603624.93      605049.67      361.50457     -2808.7806     -2073.7786      6615.6107      6883.5154      13499.126      141645.49      41.37369       41.37369       82.74738           16004 
    137000   3168.9727      593191.55      848.48686      595275.17      591487.33      592812.13     -1672.5408      129.82359      52.969905      6555.1788      6713.1914      13268.37       141993.5       41.407546      41.407546      82.815092          16004 
    138000   3205.0541      605610.19      855.16477      605515.46      605050.36      606264.76      473.94538     -833.05867     -1683.8251      6629.815       6896.5381      13526.353      141565.08      41.365859      41.365859      82.731718          16004 
    139000   3194.2375      597077.46      861.84004      597013.11      596786.01      597433.26      1185.8679      86.01485      -1435.5934      6607.4403      6806.2158      13413.656      141927.11      41.401091      41.401091      82.802182          16004 
    140000   3193.0146      601775.91      868.51875      601040.4       602519.98      601767.35     -1635.2869      3196.5126     -772.11292      6604.9106      6846.8294      13451.74       141693.49      41.378363      41.378363      82.756725          16004 
    141000   3210.72        599169.49      875.19535      600766.53      597134.47      599607.46     -396.07126      2742.8969      1021.2742      6641.5351      6765.2078      13406.743      141786.3       41.387395      41.387395      82.77479           16004 
    142000   3236.9381      602431.03      881.87023      602661.03      602886.79      601745.27     -962.54124      2348.524      -2775.0748      6695.7687      6805.5911      13501.36       141712.22      41.380186      41.380186      82.760372          16004 
    143000   3161.451       598553.87      888.54915      600558.6       598007.81      597095.19      1615.4915     -762.63019     -1743.7338      6539.6198      6872.0061      13411.626      141815.83      41.390268      41.390268      82.780536          16004 
    144000   3221.7043      599177.41      895.22261      600053.25      599756.21      597722.77      1336.3782     -2703.3574      439.24803      6664.2568      6769.6497      13433.906      141851.38      41.393726      41.393726      82.787452          16004 
    145000   3189.7868      602011.95      901.89771      601447.94      602325.06      602262.86     -1199.5912     -854.46548      3082.454       6598.2337      6868.7869      13467.021      141722.56      41.381192      41.381192      82.762384          16004 
    146000   3208.7464      597216.33      908.56941      596603.83      597048.06      597997.11     -1170.1362      457.79424      145.81727      6637.4527      6848.1215      13485.574      141963.92      41.404671      41.404671      82.809341          16004 
    147000   3195.5388      603976.84      915.24294      606757.01      602514.98      602658.54     -2005.1501     -1268.884       1957.301       6610.1322      6860.6997      13470.832      141636.9       41.372853      41.372853      82.745706          16004 
    148000   3224.4305      597062.37      921.91661      597112.95      597485.54      596588.62      1908.0592      4012.7813     -3400.5904      6669.896       6854.7124      13524.608      141924.78      41.400865      41.400865      82.80173           16004 
    149000   3207.7189      605190.46      928.58805      605229.4       605961.37      604380.59     -600.0311      -3025.8507     -2958.7962      6635.3274      6879.9737      13515.301      141593.11      41.368589      41.368589      82.737178          16004 
    150000   3211.895       594706.72      935.25669      594156.62      594609.14      595354.39     -963.58545     -3009.6923      2062.2188      6643.9656      6729.1578      13373.123      141956.69      41.403967      41.403967      82.807935          16004 
    151000   3159.7559      603919.25      941.92901      603632.97      603841.33      604283.46     -3090.1452     -1243.3108     -3459.7766      6536.1133      6919.3789      13455.492      141595.09      41.368782      41.368782      82.737564          16004 
    152000   3213.3434      594771.55      948.59994      593852.79      594956.45      595505.4       67.052851     -3381.2956     -465.60599      6646.9618      6780.4343      13427.396      141925.79      41.400963      41.400963      82.801926          16004 
    153000   3142.3431      605314.81      955.27056      605968.24      604188.31      605787.88     -2105.9267     -504.11259     -2007.5488      6500.0941      6868.1944      13368.289      141537.26      41.363149      41.363149      82.726298          16004 
    154000   3181.9456      594386.29      961.93911      595199.53      595130.18      592829.17      98.303483      775.70245      1182.5481      6582.014       6776.2477      13358.262      141991.98      41.407398      41.407398      82.814796          16004 
    155000   3198.5563      605721.94      968.60864      607373.13      604834.67      604958.01      1317.0618      5006.9759      524.91905      6616.374       6901.4015      13517.775      141556.77      41.365049      41.365049      82.730098          16004 
    156000   3222.8196      595580.45      975.27762      595727.17      594756.65      596257.52     -3563.6166     -2602.0858     -354.75542      6666.5638      6837.3404      13503.904      141958.8       41.404173      41.404173      82.808345          16004 
    157000   3197.9957      602971.08      981.94748      603827.12      603068.04      602018.08     -4130.6675      1428.6542      584.59243      6615.2143      6846.9739      13462.188      141691.74      41.378192      41.378192      82.756385          16004 
    158000   3207.4351      597963.99      988.61701      599608.69      597173.62      597109.66      1768.8002     -2018.8589     -685.89163      6634.7403      6832.715       13467.455      141878.22      41.396336      41.396336      82.792673          16004 
    159000   3178.6793      601541.85      995.28281      599172.19      603756.33      601697.02      1146.9809      2950.6116      562.27613      6575.2575      6934.6296      13509.887      141731.36      41.382048      41.382048      82.764096          16004 
    160000   3211.6211      598490.28      1001.9492      600236.38      597666.25      597568.21      2042.2514     -412.69738      3224.2087      6643.3991      6884.1477      13527.547      141877.94      41.39631       41.39631       82.79262           16004 
    161000   3176.6202      601685.84      1008.6147      602267.93      603353.92      599435.66     -546.62255      2080.6295     -885.78326      6570.9981      6884.9959      13455.994      141727.09      41.381633      41.381633      82.763266          16004 
    162000   3240.8491      600703.26      1015.2838      600478.6       602008.64      599622.55     -1652.622       3179.2506      3555.4123      6703.8587      6884.0171      13587.876      141845.43      41.393148      41.393148      82.786296          16004 
    163000   3221.6356      599193.19      1021.9529      598872.21      599465.3       599242.06     -3988.7291      1695.2893      961.0387       6664.1146      6764.4452      13428.56       141847.26      41.393326      41.393326      82.786652          16004 
    164000   3185.2986      602050.29      1028.6235      602948.64      601677.27      601524.96     -3466.6212      2154.3677     -406.16117      6588.9497      6826.3034      13415.253      141692.2       41.378237      41.378237      82.756474          16004 
    165000   3212.0549      598051.4       1035.2938      599243.49      596481.1       598429.6      -1267.0403      1090.7706     -2329.0022      6644.2964      6802.718       13447.014      141867.07      41.395252      41.395252      82.790505          16004 
    166000   3161.1642      600645.68      1041.9748      601302.28      599723.01      600911.75      582.02803     -3370.9552     -1343.1892      6539.0266      6813.9932      13353.02       141694.13      41.378424      41.378424      82.756849          16004 
    167000   3221.1622      596819.61      1048.6595      594874.45      597985.28      597599.1      -2326.8974     -416.60384      2165.8005      6663.1353      6791.6218      13454.757      141889.64      41.397447      41.397447      82.794894          16004 
    168000   3170.6762      603433.37      1055.3442      605169.3       603655.25      601475.54      1615.6363     -1052.6982     -862.77854      6558.7026      6910.475       13469.178      141609.39      41.370175      41.370175      82.740349          16004 
    169000   3191.9469      594185.69      1062.0241      594632.73      592893.43      595030.9       3589.1703      2835.1895      809.87196      6602.7021      6815.3486      13418.051      142021.15      41.410233      41.410233      82.820467          16004 
    170000   3214.2589      609327.51      1068.7011      608277.87      609982.48      609722.18      1610.4794     -944.27522     -1005.1402      6648.8556      6899.9487      13548.804      141424.85      41.352196      41.352196      82.704391          16004 
    171000   3177.3733      594769.43      1075.3771      595567.52      594775.81      593964.95      650.28844     -205.06669      3337.4836      6572.5559      6809.5282      13382.084      141985.06      41.406725      41.406725      82.81345           16004 
    172000   3214.9393      602971.1       1082.0561      601671.16      604180.17      603061.96     -924.72553      96.742958     -1746.2285      6650.2631      6836.0183      13486.281      141674.56      41.37652       41.37652       82.753039          16004 
    173000   3217.9852      599156.66      1088.7334      600181.62      598573.41      598714.97      2280.1514     -804.43129     -252.44246      6656.5636      6779.4151      13435.979      141839.28      41.392549      41.392549      82.785098          16004 
    174000   3209.3564      599729.7       1095.416       598559.77      599722.99      600906.35     -677.76098     -1243.3903     -619.21698      6638.7145      6794.9828      13433.697      141767.7       41.385585      41.385585      82.771171          16004 
    175000   3196.161       600275.38      1102.0962      599450.83      601939.97      599435.34     -2035.8512     -129.06019      607.78431      6611.4192      6929.0452      13540.464      141859.12      41.394479      41.394479      82.788959          16004 
    176000   3208.7944      596877.54      1108.7814      595478.92      596998.21      598155.49     -2838.009       550.74691     -2072.5275      6637.5519      6714.8446      13352.396      141879.49      41.39646       41.39646       82.792921          16004 
    177000   3209.8777      605175.7       1115.4719      605940.67      605093.78      604492.65      2142.8248      1187.824       634.28946      6639.7929      6977.2602      13617.053      141665.59      41.375647      41.375647      82.751293          16004 
    178000   3179.2349      594164.2       1122.168       593955.34      593931.1       594606.18     -2887.9607      819.00118      1436.3346      6576.4066      6766.0598      13342.466      141975.39      41.405786      41.405786      82.811571          16004 
    179000   3243.2243      605370.68      1128.8508      605998.52      606190.05      603923.49      1325.9544     -85.797327      903.60985      6708.772       6854.1627      13562.935      141623.75      41.371572      41.371572      82.743145          16004 
    180000   3203.3487      599340.61      1135.5371      600721.37      598097.64      599202.8      -34.581716      1946.6265      1994.9569      6626.2873      6783.4831      13409.77       141861.71      41.394731      41.394731      82.789463          16004 
    181000   3212.3344      602994         1142.2278      601332.27      603301.72      604348        -561.50434      2951.7821     -3622.2622      6644.8747      6847.7288      13492.604      141684.56      41.377493      41.377493      82.754986          16004 
    182000   3156.0958      597553.25      1148.9182      598078.86      597147.03      597433.85      1606.4642     -1717.0451     -3781.0996      6528.5423      6832.3452      13360.888      141844.25      41.393033      41.393033      82.786065          16004 
    183000   3220.6028      603461.89      1155.6066      605110.67      603298.5       601976.51      222.5729       2443.0211      4066.8913      6661.9782      6943.4451      13605.423      141634.52      41.372622      41.372622      82.745243          16004 
    184000   3207.8614      594697.57      1162.3006      595362.91      595287.68      593442.12      1205.7955     -3024.408      -714.53494      6635.622       6702.0898      13337.712      142011.45      41.40929       41.40929       82.81858           16004 
    185000   3246.0981      604413.78      1168.9866      606406.35      604244.77      602590.21     -4119.6773     -562.5942      -18.272398      6714.7165      6933.5821      13648.299      141654.33      41.37455       41.37455       82.7491            16004 
    186000   3146.7955      598340.12      1175.6773      598731.91      599134.23      597154.21      1344.1668     -527.10468     -88.910012      6509.3041      6837.8708      13347.175      141854.96      41.394075      41.394075      82.788149          16004 
    187000   3216.4513      602723.85      1182.3687      602010.46      602496.86      603664.23     -2132.7018      941.09656      2144.3373      6653.3908      6848.2437      13501.634      141687.18      41.377748      41.377748      82.755497          16004 
    188000   3193.5974      596712.03      1189.0589      594614.55      596421.21      599100.34      994.96107      3668.0712      1093.0111      6606.1161      6796.9115      13403.028      141929.9       41.401363      41.401363      82.802726          16004 
    189000   3208.0518      604133.54      1195.7484      604946.85      604780.68      602673.09      510.37644      4423.6988      177.64894      6636.0159      6833.8332      13469.849      141596.17      41.368887      41.368887      82.737773          16004 
    190000   3178.6519      595414.08      1202.4441      597972.65      592183.4       596086.18      2175.097       2615.5772     -256.2362       6575.2007      6776.619       13351.82       141903.57      41.398803      41.398803      82.797605          16004 
    191000   3223.3747      602729.34      1209.135       601126.25      601926.23      605135.53     -5933.1329      2293.6054      892.82295      6667.7121      6871.5004      13539.213      141710.43      41.380012      41.380012      82.760023          16004 
    192000   3198.4758      600581.88      1215.8223      601914.26      597981.77      601849.62      8.987992       198.87271     -2787.0432      6616.2075      6761.5936      13377.801      141806.5       41.389361      41.389361      82.778721          16004 
    193000   3211.3095      600558.71      1222.5085      599948.14      601755.32      599972.67     -1523.9015     -1165.5325     -2435.9672      6642.7545      6851.3126      13494.067      141789.95      41.38775       41.38775       82.775499          16004 
    194000   3215.4717      598109.61      1229.1935      599378.63      597810.17      597140.03     -2071.7365      1876.6344      3240.323       6651.3643      6858.3979      13509.762      141951.33      41.403446      41.403446      82.806892          16004 
    195000   3195.8975      601735.42      1235.8867      600465.37      604051.3       600689.6      -574.25424      1730.4927      1066.8575      6610.8741      6842.337       13453.211      141702.4       41.37923       41.37923       82.758459          16004 
    196000   3182.0857      598455.67      1242.5745      599221.82      597868.1       598277.08     -580.4308       1061.6915      5453.9578      6582.3037      6826.1896      13408.493      141871.12      41.395646      41.395646      82.791293          16004 
    197000   3189.7601      604546.73      1249.2633      605342.9       604369.21      603928.09     -2933.2688     -58.645632      2662.9853      6598.1787      6839.4262      13437.605      141613.17      41.370542      41.370542      82.741085          16004 
    198000   3216.2102      598071.51      1255.9557      596606.63      599736.31      597871.6       3696.2078      1264.067      -904.9658       6652.8919      6807.4415      13460.333      141912.49      41.39967       41.39967       82.799339          16004 
    199000   3219.7433      602327.34      1262.6415      603426.46      602540.16      601015.39     -1379.5485      2361.9104     -2252.9824      6660.2003      6863.7213      13523.922      141735.08      41.382411      41.382411      82.764822          16004 
    200000   3153.1053      598677.36      1269.3334      597716.26      599997.6       598318.23     -1950.0206      5349.1099      444.18142      6522.3562      6771.9527      13294.309      141742.62      41.383144      41.383144      82.766289          16004 
    201000   3199.4873      598630.04      1276.0196      596620.2       598981.96      600287.98      2838.5052      1452.8526      2661.6064      6618.2997      6873.2688      13491.569      141807.79      41.389486      41.389486      82.778972          16004 
    202000   3218.1209      601680.6       1282.7085      601725.63      601779.61      601536.54     -3497.6256     -2214.3321      2074.7936      6656.8444      6812.813       13469.657      141730.16      41.381931      41.381931      82.763863          16004 
    203000   3179.3547      595196.67      1289.398       595311.59      594476.73      595801.69     -89.667376      936.6225      -1565.4027      6576.6546      6798.5551      13375.21       141945.6       41.402889      41.402889      82.805778          16004 
    204000   3194.5854      607699.08      1296.09        609014         607355.97      606727.28      1880.3102      3066.2477     -682.9849       6608.16        6922.9377      13531.098      141523.47      41.361806      41.361806      82.723612          16004 
    205000   3165.7324      595684.31      1302.7781      597007.58      593468.43      596576.92      1376.8176      108.97312     -1820.5628      6548.4761      6825.3246      13373.801      141938.53      41.402202      41.402202      82.804403          16004 
    206000   3208.426       600535.11      1309.4548      600187.89      600087.99      601329.45     -3325.723       4476.1768      1054.9598      6636.7899      6829.0572      13465.847      141715.28      41.380483      41.380483      82.760966          16004 
    207000   3193.4598      600624.45      1316.1343      600428.35      601894.02      599550.97      937.37639     -798.03297     -2496.7487      6605.8316      6824.0874      13429.919      141762.8       41.385108      41.385108      82.770216          16004 
    208000   3214.4145      597700.75      1322.82        599550.4       597352.05      596199.8       1638.9967      370.92213      4435.7493      6649.1773      6748.4494      13397.627      141906.84      41.39912       41.39912       82.79824           16004 
    209000   3209.9788      604396.73      1329.5055      602720.17      607159.97      603310.06      737.54909     -798.79321      576.80824      6640.0019      6884.8637      13524.866      141689.71      41.377995      41.377995      82.755989          16004 
    210000   3200.8426      597075.86      1336.1937      598037.74      598114.38      595075.46      255.86229     -1773.7881      3690.1165      6621.1032      6829.3344      13450.438      141929.11      41.401286      41.401286      82.802572          16004 
    211000   3212.229       602671.32      1342.8814      600088.07      602425.87      605500.01      4236.0117     -2023.9853      16.416364      6644.6566      6921.1556      13565.812      141769.74      41.385783      41.385783      82.771567          16004 
    212000   3194.1695      600074.65      1349.5648      600008.88      599309.7       600905.38     -1469.6198      1123.4718      401.08528      6607.2996      6796.3442      13403.644      141826.49      41.391305      41.391305      82.78261           16004 
    213000   3221.7702      599954.17      1356.253       599377.96      600827.29      599657.26     -1766.1884      777.06839     -1119.4548      6664.393       6851.8979      13516.291      141833.97      41.392032      41.392032      82.784065          16004 
    214000   3185.9556      600741.89      1362.9445      601726.49      598138.34      602360.85     -2214.6204      1042.3169     -3034.6647      6590.3088      6805.1885      13395.497      141753.5       41.384204      41.384204      82.768407          16004 
    215000   3211.6404      598348.27      1369.6355      598591.95      596471.18      599981.67      6260.1333     -2999.6843     -780.10661      6643.4391      6838.8827      13482.322      141851         41.393689      41.393689      82.787379          16004 
    216000   3151.7719      600213.19      1376.326       599369         600816         600454.57      428.32518      414.56866      2221.1203      6519.5981      6754.2939      13273.892      141719.75      41.380919      41.380919      82.761838          16004 
    217000   3206.1137      600404.85      1383.0174      600737.45      599568.7       600908.39     -1852.7539      3076.995       3823.1959      6632.0068      6839.823       13471.83       141770.13      41.385821      41.385821      82.771643          16004 
    218000   3188.1513      598017.69      1389.7026      598788.02      597581.77      597683.28     -2109.6304     -1603.4175      300.32921      6594.8507      6757.4956      13352.346      141816.21      41.390305      41.390305      82.780611          16004 
    219000   3189.8086      602332.88      1396.3941      602391.33      601811.39      602795.93     -2330.3657      502.68736     -1583.0928      6598.2789      6868.438       13466.717      141726.58      41.381584      41.381584      82.763167          16004 
    220000   3142.3641      597442.71      1403.0772      598051.71      597267.95      597008.46      3057.8314      1991.8835     -4661.258       6500.1376      6817.3925      13317.53       141861.53      41.394714      41.394714      82.789428          16004 
    221000   3212.8164      601213.79      1409.7664      601023.58      600679.1       601938.69     -1102.1717      1280.515       1461.7082      6645.8716      6828.8642      13474.736      141751.81      41.384039      41.384039      82.768078          16004 
    222000   3214.196       600545.12      1416.4576      600357.91      600517.41      600760.05      5535.0799     -228.00552      1315.3461      6648.7254      6750.9409      13399.666      141743.68      41.383248      41.383248      82.766496          16004 
    223000   3173.2723      599076.84      1423.1516      597954.08      598998.75      600277.69     -227.80721     -2211.8622      1880.3345      6564.0727      6818.61        13382.683      141800.08      41.388736      41.388736      82.777472          16004 
    224000   3211.3678      599100.92      1429.8381      597175.14      598536.5       601591.11     -3608.0962     -430.55356     -2644.3282      6642.8751      6809.1594      13452.034      141862.11      41.39477       41.39477       82.789539          16004 
    225000   3200.5214      603856.83      1436.5274      604958.37      604243.22      602368.91     -2419.2898     -1251.3619      1152.2388      6620.4389      6785.0428      13405.482      141626.14      41.371806      41.371806      82.743611          16004 
    226000   3171.9742      595796.8       1443.2111      595008.46      595036.88      597345.05     -956.90706     -1284.0273     -1428.1404      6561.3876      6790.3012      13351.689      141997.1       41.407896      41.407896      82.815792          16004 
    227000   3154.2589      604290.13      1449.8989      604910.16      603509.52      604450.7      -4512.0419      2722.7101      3476.1891      6524.7426      6938.4369      13463.18       141630.97      41.372276      41.372276      82.744551          16004 
    228000   3176.575       593920.39      1456.5874      593622.52      595384.95      592753.68      2359.6171      887.16141      1921.3798      6570.9045      6743.1035      13314.008      141965.79      41.404852      41.404852      82.809705          16004 
    229000   3227.066       608519         1463.2787      608977.11      608429.68      608150.22     -70.272922      295.90715      39.61593       6675.3477      6961.3604      13636.708      141517.67      41.36124       41.36124       82.722481          16004 
    230000   3208.7815      596369.83      1469.9663      595403.63      594161.16      599544.72      2844.1392     -1512.0177      1014.1002      6637.5254      6752.6155      13390.141      141907.43      41.399178      41.399178      82.798355          16004 
    231000   3165.1079      602345.48      1476.6512      603321.74      601038.39      602676.3      -1845.8537      6131.9446      1030.6718      6547.1843      6831.1117      13378.296      141734.82      41.382385      41.382385      82.764771          16004 
    232000   3216.3793      600237.47      1483.3376      600313.93      599592.98      600805.49      579.01558     -1309.7153     -2088.4135      6653.2418      6814.1444      13467.386      141816.86      41.390368      41.390368      82.780736          16004 
    233000   3172.855       600390.46      1490.0235      601357.44      600046.94      599767         1191.754       1752.3859      325.9571       6563.2096      6839.7343      13402.944      141710         41.379969      41.379969      82.759939          16004 
    234000   3224.3702      599431.49      1496.7168      598083.97      600772.7       599437.81      3089.2465     -2858.2166      344.6264       6669.7714      6785.2396      13455.011      141851.32      41.393721      41.393721      82.787441          16004 
    235000   3183.6818      599834.38      1503.4124      600678.61      600472.65      598351.89      944.45241      190.76861     -1378.1445      6585.6052      6736.567       13322.172      141770.99      41.385905      41.385905      82.77181           16004 
    236000   3215.0367      599918.5       1510.1049      601567.44      599039.55      599148.52      1671.0544     -143.72402     -842.45584      6650.4644      6816.7821      13467.247      141808.7       41.389574      41.389574      82.779148          16004 
    237000   3159.6311      597704.66      1516.7989      596983.39      598216.19      597914.39      3048.6762      203.40023     -2643.0878      6535.8553      6809.255       13345.11       141882.76      41.396778      41.396778      82.793557          16004 
    238000   3197.2868      603279.72      1523.4851      604276.55      602639.81      602922.79      1694.8045      754.14976     -3418.7311      6613.748       6990.4319      13604.18       141698.66      41.378866      41.378866      82.757732          16004 
    239000   3194.2162      591949.24      1530.1732      591772.73      592111.33      591963.66      926.21122      2159.7003     -68.080154      6607.3962      6721.6355      13329.032      141978.75      41.406112      41.406112      82.812223          16004 
    240000   3207.7424      607617.84      1536.8674      606658.1       607537.01      608658.4       1540.3843     -920.48592     -2624.9648      6635.3758      6988.1751      13623.551      141570.48      41.366385      41.366385      82.73277           16004 
    241000   3165.814       596556.01      1543.5641      596713.82      595597.98      597356.23      1188.6061      1323.1027     -191.12633      6548.6448      6817.4661      13366.111      141870.7       41.395605      41.395605      82.791211          16004 
    242000   3177.5439      599111.66      1550.2544      598904.4       599727.33      598703.25      768.12979      1370.7868      442.54591      6572.9087      6921.5415      13494.45       141760.62      41.384896      41.384896      82.769792          16004 
    243000   3224.5562      599906.54      1556.938       599887.98      597192.31      602639.33     -875.97779      4113.6142     -166.34061      6670.1561      6740.1095      13410.266      141762.68      41.385096      41.385096      82.770193          16004 
    244000   3191.9532      601036.91      1563.6205      599536.29      601317.53      602256.92     -3095.3838      2599.6246      486.63418      6602.7151      6837.8706      13440.586      141757.54      41.384596      41.384596      82.769193          16004 
    245000   3181.768       601183.36      1570.3018      598813.45      603185.62      601551.01      2484.2994     -642.07297     -3174.0077      6581.6464      6859.3354      13440.982      141735.84      41.382485      41.382485      82.764969          16004 
    246000   3152.8374      597227.68      1576.9872      596722.43      599520.41      595440.2      -3554.5917     -1537.9349      2227.0982      6521.8022      6753.868       13275.67       141839.35      41.392556      41.392556      82.785112          16004 
    247000   3218.553       601679.94      1583.6758      601065.64      601710.97      602263.21      1430.5303     -2818.7219     -1091.2148      6657.7382      6811.2311      13468.969      141744         41.383279      41.383279      82.766558          16004 
    248000   3184.8703      597657.19      1590.3654      598918.18      597773.68      596279.71     -3957.4705     -1565.6058     -259.76195      6588.0638      6785.3944      13373.458      141865.14      41.395065      41.395065      82.79013           16004 
    249000   3213.3366      602967.57      1597.057       601442.06      603371.84      604088.83      126.55716      1599.6002     -1950.8928      6646.9478      6863.2583      13510.206      141695.04      41.378514      41.378514      82.757028          16004 
    250000   3147.1397      594935.45      1603.7431      596295.9       594577.31      593933.14     -1024.6059     -3760.1902     -1254.0385      6510.0161      6767.2779      13277.294      141940.83      41.402425      41.402425      82.804851          16004 
    251000   3224.251       605342.81      1610.4311      604111.07      607339.41      604577.94      2295.9956     -495.66644     -1701.5717      6669.5247      6885.1819      13554.707      141610.22      41.370255      41.370255      82.74051           16004 
    252000   3117.6114      593739.02      1617.1174      595667.44      594109.9       591439.71      1986.9524      2869.9902     -758.59215      6448.9354      6752.2331      13201.168      141953.03      41.403611      41.403611      82.807222          16004 
    253000   3227.0462      605025.83      1623.8083      604051.12      603285.86      607740.53      105.64832      1624.3773     -1092.0362      6675.3068      6879.7843      13555.091      141649.83      41.374112      41.374112      82.748224          16004 
    254000   3187.8292      598493.79      1630.5003      597609.61      598892.61      598979.15      3656.9805     -437.55214      2354.5545      6594.1844      6772.174       13366.358      141835.03      41.392136      41.392136      82.784271          16004 
    255000   3192.1395      601052.1       1637.1942      601963.01      600073.43      601119.86      4899.766       393.65748     -2060.1075      6603.1004      6877.1288      13480.229      141756.01      41.384447      41.384447      82.768895          16004 
    256000   3208.8733      598757.67      1643.8805      598392.68      598204.43      599675.9       3039.7032      2908.2008     -2321.128       6637.7152      6781.5538      13419.269      141824.66      41.391127      41.391127      82.782254          16004 
    257000   3216.6324      601118.28      1650.5614      602426.83      598660.6       602267.41      3438.7395     -357.46188     -45.40455       6653.7654      6861.54        13515.305      141732.04      41.382115      41.382115      82.76423           16004 
    258000   3229.8204      597391.9       1657.2464      597882.9       595792.45      598500.35      1519.7349      506.20469      484.05701      6681.0452      6717.3205      13398.366      141850.5       41.39364       41.39364       82.787281          16004 
    259000   3232.6999      605233.03      1663.9357      604765.32      606042.82      604890.94      5286.8881      947.88469      5505.1428      6687.0018      6875.6974      13562.699      141606.98      41.36994       41.36994       82.739879          16004 
    260000   3226.8428      592075.25      1670.6228      593618.93      592700.9       589905.92     -62.849566      2122.1035     -953.82829      6674.8859      6747.8909      13422.777      142035.79      41.411657      41.411657      82.823313          16004 
    261000   3196.9876      602361.89      1677.3115      603599.37      602193.19      601293.11     -1112.9242     -2474.4549     -299.31151      6613.1291      6839.8546      13452.984      141683.84      41.377423      41.377423      82.754846          16004 
    262000   3211.6575      595562.74      1683.9932      595106.99      598132.71      593448.51     -267.36969     -1789.0431      2512.8168      6643.4744      6745.2221      13388.696      141955.25      41.403827      41.403827      82.807655          16004 
    263000   3174.4331      604072.32      1690.6661      605580.38      603000.41      603636.17      342.84629     -215.69291      2580.927       6566.4738      6911.9297      13478.403      141653.88      41.374507      41.374507      82.749014          16004 
    264000   3168.6909      597188.76      1697.334       595374.58      599147.44      597044.26     -1568.6313     -238.19441      1564.852       6554.5958      6819.0957      13373.691      141891.37      41.397616      41.397616      82.795231          16004 
    265000   3208.6854      601023.9       1704.0145      600802.43      600654.13      601615.15      2576.0401     -536.79598      952.06031      6637.3265      6832.0705      13469.397      141809.11      41.389615      41.389615      82.779229          16004 
    266000   3180.4923      599451.22      1710.6912      599501.13      598301.11      600551.41     -586.71871      147.69359     -739.8237       6579.0077      6877.953       13456.961      141789         41.387657      41.387657      82.775315          16004 
    267000   3192.9539      598989.39      1717.3678      598462.89      599331.04      599174.26      707.40429      90.547474     -534.59743      6604.7851      6763.8103      13368.595      141754.58      41.384308      41.384308      82.768616          16004 
    268000   3184.2068      601492.84      1724.0549      601428.73      599617.24      603432.55     -1137.0918     -2954.4203      272.36136      6586.6914      6916.5906      13503.282      141774.1       41.386208      41.386208      82.772416          16004 
    269000   3195.1995      596494.92      1730.7273      596881.44      595052.36      597550.96     -1532.4109      658.37603     -591.69477      6609.4303      6715.9716      13325.402      141866.3       41.395178      41.395178      82.790355          16004 
    270000   3216.5264      602446.19      1737.3984      601387.83      602962.95      602987.79      2435.9553      2876.6424      2076.6914      6653.5461      6875.4327      13528.979      141690.24      41.378046      41.378046      82.756093          16004 
    271000   3207.1559      597511.06      1744.0664      598050.07      597957         596526.12     -1724.144       984.07709     -1738.1832      6634.1627      6740.1033      13374.266      141843.64      41.392974      41.392974      82.785947          16004 
    272000   3220.9147      602471.2       1750.7487      601914.42      603071.4       602427.79     -2277.2174     -4531.8951      4028.8104      6662.6235      6802.426       13465.05       141729.41      41.381859      41.381859      82.763717          16004 
    273000   3224.2905      598269.22      1757.4262      598904.41      598027.11      597876.12      656.58989     -2154.768       1756.0633      6669.6064      6743.2829      13412.889      141901.16      41.398567      41.398567      82.797135          16004 
    274000   3205.2832      602996.33      1764.1109      604405.71      602818.39      601764.89     -3623.3154      1821.3225     -18.542268      6630.2889      6924.9402      13555.229      141707.34      41.379711      41.379711      82.759422          16004 
    275000   3195.9613      595938.79      1770.7917      595744.72      595824.38      596247.26     -4826.119      -1066.4969      1147.3073      6611.0062      6756.5326      13367.539      141944.45      41.402778      41.402778      82.805555          16004 
    276000   3187.1872      603651.52      1777.4683      605727.87      602326.11      602900.58     -1716.3149     -2992.353       1521.0817      6592.8564      6902.9306      13495.787      141638.51      41.37301       41.37301       82.74602           16004 
    277000   3216.2331      597775.23      1784.1451      598175.9       597555.16      597594.64     -399.03977      1146.8892      1686.7815      6652.9393      6763.7441      13416.683      141881.42      41.396648      41.396648      82.793296          16004 
    278000   3198.798       602533.63      1790.8079      602496.82      603351.61      601752.45      2187.5026      1409.3752     -1242.8509      6616.8739      6820.9583      13437.832      141678.64      41.376917      41.376917      82.753834          16004 
    279000   3208.0133      597756.06      1797.4774      596635.64      598158.06      598474.48     -457.88866      66.732204      1504.1197      6635.9362      6715.6735      13351.61       141791.92      41.387942      41.387942      82.775884          16004 
    280000   3210.015       599270.86      1804.1488      598400.39      598898.74      600513.46      490.80673     -670.75084      1555.4935      6640.0767      6800.3596      13440.436      141778.66      41.386652      41.386652      82.773303          16004 
    281000   3182.1775      602599.54      1810.8247      602682.33      604773.68      600342.61      2365.8471      864.18537     -2330.3812      6582.4936      6824.9621      13407.456      141701.02      41.379096      41.379096      82.758192          16004 
    282000   3243.1072      598394.66      1817.4937      598537.6       597278.3       599368.09      137.96843      863.06036      54.204157      6708.5296      6872.3324      13580.862      141882.34      41.396738      41.396738      82.793475          16004 
    283000   3221.4996      604451.41      1824.1597      602151.13      606219.91      604983.2      -1230.7368      1492.2605     -3010.0733      6663.8333      6821.691       13485.524      141589.89      41.368276      41.368276      82.736551          16004 
    284000   3202.9194      592253.94      1830.8216      590337.28      594326.5       592098.05     -1437.8322     -520.70702     -1601.8028      6625.3992      6753.3406      13378.74       142044.99      41.41255       41.41255       82.8251            16004 
    285000   3228.8835      605826.08      1837.4938      605517.41      605716.27      606244.55      3692.3723     -3872.104       128.81236      6679.1074      6897.7113      13576.819      141585.27      41.367826      41.367826      82.735652          16004 
    286000   3213.2785      597255.82      1844.1699      597137.52      598568.56      596061.39      316.04388      956.49048     -221.55622      6646.8276      6730.0204      13376.848      141883.43      41.396844      41.396844      82.793687          16004 
[...]
   3930000   3556.7633      602643.7       6968.6082      602675.08      599128.51      606127.51      994.82978     -111.52979     -2335.032       7357.3431      8399.3113      15756.654      142087.47      41.46208       41.46208       82.652044          16004 
   3931000   3584.3803      594180.44      6976.128       593516.58      593477.12      595547.63      2034.9573     -5030.7104     -2450.8689      7414.4703      8239.0828      15653.553      142361.96      41.488763      41.488763      82.705233          16004 
   3932000   3533.4335      605550.06      6983.6443      604227.42      604652.71      607770.03     -1135.4232      2200.7473      2688.1054      7309.0843      8481.8022      15790.886      141994.84      41.453069      41.453069      82.63408           16004 
   3933000   3581.485       596806.8       6991.1558      594055.5       596809.48      599555.42     -2341.3874     -2988.2774      2896.0828      7408.4811      8282.3888      15690.87       142260.87      41.478941      41.478941      82.685653          16004 
   3934000   3584.9851      603635.72      6998.6774      600772.53      602132.26      608002.37      387.90462      134.71741      2050.3731      7415.7213      8375.6073      15791.329      141991.2       41.452714      41.452714      82.633372          16004 
   3935000   3555.2106      593596.24      7006.1986      591946.49      591689.42      597152.82      2811.8687     -2338.8292      2706.0728      7354.1312      8316.7409      15670.872      142309.27      41.483643      41.483643      82.695028          16004 
   3936000   3586.8804      601689.95      7013.7149      600533.96      598936.14      605599.74     -258.95753     -1387.1722      3226.9989      7419.6418      8344.4697      15764.112      142059.22      41.459333      41.459333      82.646567          16004 
   3937000   3616.0423      598600.29      7021.2378      598338.83      595362.89      602099.14     -297.01305      857.29728      1645.2622      7479.9647      8237.8158      15717.781      142179.81      41.47106       41.47106       82.669945          16004 
   3938000   3570.5812      598347.93      7028.759       599245.64      594795.35      601002.79     -435.49537      2177.0835     -2145.429       7385.9261      8329.9874      15715.913      142183.66      41.471434      41.471434      82.670691          16004 
   3939000   3544.807       604281.03      7036.2782      602277.71      602708.49      607856.89     -325.83661     -980.61807      3664.0277      7332.6108      8473.9494      15806.56       141942.06      41.447932      41.447932      82.62384           16004 
   3940000   3584.1547      591556.53      7043.8012      590441.25      588911.6       595316.73      1559.6169      2128.918       183.04212      7414.0035      8241.3906      15655.394      142343.47      41.486966      41.486966      82.701652          16004 
   3941000   3590.517       605749.41      7051.3227      603471.62      603123.92      610652.71      3483.9413     -2377.1532     -1165.9312      7427.1644      8423.3893      15850.554      141822.25      41.436267      41.436267      82.600586          16004 
   3942000   3550.7403      597376.07      7058.8456      594727.51      596718.72      600681.97      3360.743      -146.10849      1713.561       7344.8842      8370.9373      15715.821      142179.92      41.471071      41.471071      82.669966          16004 
   3943000   3580.3069      600757.72      7066.363       597907.4       600169.21      604196.54      1602.5524     -4130.2992      723.9535       7406.0442      8348.1268      15754.171      142076.36      41.461         41.461         82.649891          16004 
   3944000   3609.4708      599842.75      7073.8862      600151.2       596174.59      603202.48     -2780.1536      1698.5518      2215.0482      7466.3712      8245.3404      15711.712      142187.81      41.471838      41.471838      82.671495          16004 
   3945000   3583.4388      600938.98      7081.41        600251.57      597200.76      605364.62     -583.06279     -1828.9311      2246.1521      7412.5227      8318.9261      15731.449      142134.96      41.4667        41.4667        82.661252          16004 
   3946000   3559.4743      598244.38      7088.937       594440.39      596816.08      603476.68      411.46328      492.82407      878.38858      7362.9509      8337.0361      15699.987      142217.24      41.4747        41.4747        82.6772            16004 
   3947000   3582.6108      597780.58      7096.4656      595241.14      595075.63      603024.98      122.6783       3274.6159     -698.63824      7410.81        8300.4721      15711.282      142186.62      41.471722      41.471722      82.671265          16004 
   3948000   3572.5832      601957.71      7103.994       598966.97      601806.83      605099.31     -2086.9242     -3069.893      -2350.8564      7390.0673      8377.8101      15767.877      142033.93      41.456873      41.456873      82.641662          16004 
   3949000   3570.5752      595994.7       7111.5185      595480.43      591868.62      600635.03     -243.00334     -1097.9631      3979.638       7385.9138      8304.3963      15690.31       142239.88      41.4769        41.4769        82.681586          16004 
   3950000   3556.6691      600975.97      7119.0386      601695.04      596725.5       604507.36      246.07372     -3885.6113     -443.07756      7357.1483      8389.2411      15746.389      142089.37      41.462265      41.462265      82.652413          16004 
   3951000   3587.1422      598993.6       7126.558       597925.92      597016.65      602038.23      2371.0089      1789.4126      668.60732      7420.1833      8323.3259      15743.509      142095.95      41.462905      41.462905      82.653687          16004 
   3952000   3560.2314      601993.69      7134.0806      600496.23      601486.48      603998.38      2599.477       1772.128      -712.19078      7364.5171      8391.6402      15756.157      142061.11      41.459516      41.459516      82.646932          16004 
   3953000   3576.3387      598212.8       7141.6049      595198.96      597472.58      601966.85      541.52096      3890.7255      1649.5336      7397.8358      8317.6274      15715.463      142167.97      41.469909      41.469909      82.66765           16004 
   3954000   3573.1286      604791.84      7149.1305      601449.11      602540.91      610385.5       3367.0438     -734.56413      3337.0481      7391.1955      8413.3739      15804.569      141930.13      41.446771      41.446771      82.621525          16004 
   3955000   3581.5612      595457.56      7156.66        593578.22      593807.46      598987.01     -1795.006       5042.8647     -3227.4439      7408.6388      8229.7104      15638.349      142371.81      41.489719      41.489719      82.70714           16004 
   3956000   3577.0093      600851.68      7164.1961      598679.18      599833.63      604042.24     -1839.7914      1252.1591      1564.4646      7399.223       8325.1087      15724.332      142140.7       41.467257      41.467257      82.662364          16004 
   3957000   3588.0679      602355.74      7171.7293      599237.47      603236.37      604593.36      2982.6215      2643.9019      517.99542      7422.0981      8332.9317      15755.03       142058.55      41.459268      41.459268      82.646437          16004 
   3958000   3580.4569      599099.59      7179.257       597031.88      595887.75      604379.13     -1051.518      -2543.7191      2536.3982      7406.3544      8284.7773      15691.132      142228.33      41.475777      41.475777      82.679347          16004 
   3959000   3602.1854      605009.77      7186.7853      603965.5       603016.44      608047.36     -2129.6229      923.72317      1656.5622      7451.301       8318.4677      15769.769      142014.51      41.454982      41.454982      82.637894          16004 
   3960000   3573.1072      595584.15      7194.3059      594467         591739.39      600546.08      596.80235      3317.3922      3358.4465      7391.1513      8274.5177      15665.669      142291.61      41.481928      41.481928      82.691609          16004 
   3961000   3631.3101      605337.86      7201.8326      603951.39      602945.66      609116.55     -4518.7276     -1664.0345      2262.2629      7511.5468      8262.2174      15773.764      142001.47      41.453714      41.453714      82.635365          16004 
   3962000   3553.2334      599693.7       7209.3648      597586.38      599712.62      601782.1       963.36286     -758.44532     -1349.7914      7350.0413      8351.871       15701.912      142192.09      41.472254      41.472254      82.672325          16004 
   3963000   3575.2833      603671.17      7216.8951      600345.48      603920.42      606747.62      1321.5077     -3353.7183      1449.0154      7395.6526      8364.8018      15760.454      142035.14      41.45699       41.45699       82.641897          16004 
   3964000   3594.9686      596923.19      7224.4239      594724.79      596083.36      599961.42      562.87371     -245.91463     -4276.9784      7436.3727      8267.0017      15703.374      142186.63      41.471723      41.471723      82.671266          16004 
   3965000   3580.0987      600718.38      7231.9514      599342.02      597024.38      605788.75      1830.7929      688.62457      2844.7819      7405.6135      8315.7159      15721.329      142139.02      41.467094      41.467094      82.662038          16004 
   3966000   3646.3067      603594.2       7239.4725      600735.51      603116.88      606930.2       4342.5681     -449.73487     -2795.9928      7542.568       8223.8227      15766.391      142017.07      41.455232      41.455232      82.638392          16004 
   3967000   3581.5216      595083.3       7247.0023      592669.75      593465.16      599114.98      276.88751      3566.5619      5500.4382      7408.5569      8248.9871      15657.544      142307.84      41.483505      41.483505      82.694753          16004 
   3968000   3602.5182      603424.82      7254.5279      603462.99      599963.82      606847.63     -207.59034      99.956668     -510.90515      7451.9895      8297.5851      15749.575      142061.11      41.459517      41.459517      82.646933          16004 
   3969000   3605.7309      598958.54      7262.0554      597429.95      598499.13      600946.55      1028.901       667.22559      106.60694      7458.6349      8245.172       15703.807      142182.39      41.471311      41.471311      82.670444          16004 
   3970000   3590.6188      600654.53      7269.5791      599650.97      598778.76      603533.87      1076.4507     -1437.5006     -47.308229      7427.3749      8317.9123      15745.287      142069.87      41.460368      41.460368      82.648631          16004 
   3971000   3575.328       601056.96      7277.1074      599076.13      600929         603165.76      1891.3451      2775.5525      2817.3324      7395.7452      8316.283       15712.028      142157.49      41.46889       41.46889       82.665619          16004 
   3972000   3564.2347      597980.99      7284.6405      597432.49      597673.87      598836.62     -705.23417      1499.1959     -272.99349      7372.798       8287.7536      15660.552      142294.3       41.482189      41.482189      82.692129          16004 
   3973000   3598.1738      607812.03      7292.1688      607702.48      605116.39      610617.22     -1201.8943     -2993.8221      1812.5388      7443.0027      8373.7447      15816.747      141877.1       41.441608      41.441608      82.611232          16004 
   3974000   3572.6037      596887.83      7299.6993      593777.98      594993.68      601891.85      1743.8552     -1534.4244      2192.5576      7390.1098      8251.1915      15641.301      142340.96      41.486722      41.486722      82.701166          16004 
   3975000   3572.7248      601646.33      7307.2231      598295.43      598866.46      607777.11      1249.7278     -1651.1123     -471.66567      7390.3602      8360.226       15750.586      142047.12      41.458155      41.458155      82.644219          16004 
   3976000   3585.0598      598121.56      7314.7507      596696.93      596618.52      601049.24     -95.990014     -4864.712       2733.5418      7415.8758      8269.4658      15685.342      142220.75      41.475041      41.475041      82.677879          16004 
   3977000   3572.3539      601496.02      7322.2773      597713.72      600036.53      606737.8       2048.7778      325.41279      3734.0916      7389.5931      8362.6489      15752.242      142041.71      41.457629      41.457629      82.64317           16004 
   3978000   3585.4492      598914.78      7329.8105      598343.88      594806.23      603594.24      146.48531      1688.4585      5169.3648      7416.6814      8299.0667      15715.748      142138.49      41.467043      41.467043      82.661936          16004 
   3979000   3635.5742      597485.01      7337.338       597318.53      595699.55      599436.95     -2251.3343      271.66593     -635.054        7520.3674      8162.7807      15683.148      142224.6       41.475415      41.475415      82.678626          16004 
   3980000   3605.7972      603307.47      7344.8592      602208.83      600134.28      607579.3       3335.9764      289.48195     -1631.1948      7458.7722      8300.7599      15759.532      142020.21      41.455538      41.455538      82.639001          16004 
   3981000   3583.6809      597025.59      7352.3838      593392.5       598320.65      599363.62      4677.2033      954.44483      2571.275       7413.0235      8222.5706      15635.594      142349.57      41.487559      41.487559      82.702834          16004 
   3982000   3593.2333      601514.06      7359.9133      601485.04      598325.93      604731.22     -729.15897     -2109.0835     -5390.9719      7432.7831      8277.1004      15709.884      142150.89      41.468248      41.468248      82.664339          16004 
   3983000   3596.3023      596887.42      7367.4404      595532.99      595436.8       599692.47      1824.0125      1156.4532      1692.6344      7439.1314      8219.4765      15658.608      142285.91      41.481374      41.481374      82.690504          16004 
   3984000   3583.5454      603660.72      7374.9642      602767.41      600654.9       607559.84      2575.7074      5724.3356     -4021.4809      7412.7433      8361.4063      15774.15       141977.18      41.45135       41.45135       82.630653          16004 
   3985000   3564.4212      598354.64      7382.4926      597833.41      593252.89      603977.61      2692.9575     -815.56906      45.746036      7373.1838      8308.4202      15681.604      142221.66      41.475129      41.475129      82.678056          16004 
   3986000   3540.3152      599874.54      7390.0223      599200.33      598783.43      601639.86     -459.87415     -800.179       -2324.2619      7323.3194      8382.865       15706.184      142155.19      41.468667      41.468667      82.665173          16004 
   3987000   3593.1345      602135.43      7397.5568      600465.43      597713.2       608227.66      1133.6444     -757.45859      2191.6889      7432.5786      8291.7409      15724.32       142106.22      41.463905      41.463905      82.65568           16004 
   3988000   3606.6778      597641.14      7405.0836      596212.4       597585.54      599125.48      1756.058      -892.75576     -1252.0647      7460.5937      8235.9434      15696.537      142179.74      41.471053      41.471053      82.66993           16004 
   3989000   3610.5631      601900.08      7412.608       598525.98      600569.75      606604.51      886.89453      874.52444     -3663.8617      7468.6307      8254.037       15722.668      142109.48      41.464222      41.464222      82.656312          16004 
   3990000   3579.0171      599348.02      7420.1332      598667.92      596308.05      603068.08     -1475.095      -919.08266     -1213.5116      7403.3761      8280.1777      15683.554      142213.82      41.474367      41.474367      82.676536          16004 
   3991000   3569.1298      601849.54      7427.6616      600618.5       599044.27      605885.84      2504.3098      3768.3835     -1489.9571      7382.9239      8355.0654      15737.989      142066.86      41.460076      41.460076      82.648048          16004 
   3992000   3564.7585      599007.03      7435.1835      597575.57      595596.55      603848.97      250.73754     -165.16135     -1716.2917      7373.8816      8301.5485      15675.43       142232.9       41.476221      41.476221      82.680233          16004 
   3993000   3581.6261      597690.92      7442.7091      596492.31      596321.9       600258.56      378.1769      -1421.0812     -4302.0734      7408.7731      8258.2584      15667.031      142255.47      41.478416      41.478416      82.684607          16004 
   3994000   3529.7916      603649.48      7450.2314      600831.84      602127.77      607988.83      819.87616      4649.1453      1649.1767      7301.5507      8456.3986      15757.949      142012.45      41.454782      41.454782      82.637494          16004 
   3995000   3563.2298      594433.71      7457.7562      593533.49      592788.05      596979.57      2682.3379      1869.9296      592.39224      7370.7194      8268.181       15638.9        142329.03      41.485563      41.485563      82.698856          16004 
   3996000   3616.5015      607241.17      7465.2776      606835.57      604331.29      610556.65      1379.9443      700.09771     -814.06405      7480.9145      8305.2885      15786.203      141933.97      41.447144      41.447144      82.622269          16004 
   3997000   3596.6057      595728.32      7472.8009      592723.44      594173.56      600287.97     -710.61096     -58.608911     -3728.2668      7439.759       8209.3966      15649.156      142299.7       41.482714      41.482714      82.693175          16004 
   3998000   3580.7752      600957.92      7480.3228      598421.38      600054.84      604397.54      3345.9137     -3168.7621      2578.8888      7407.0128      8317.4307      15724.443      142096.67      41.462975      41.462975      82.653827          16004 
   3999000   3590.8436      596705.09      7487.848       595027.88      594789.9       600297.49      1165.3466     -1460.0917     -974.05317      7427.8398      8249.9743      15677.814      142220.92      41.475057      41.475057      82.677912          16004 
   4000000   3596.2691      603071.4       7495.3848      601359.36      599389.91      608464.93     -1017.2362      5593.4945     -2688.0494      7439.0629      8315.9378      15755.001      142013.04      41.45484       41.45484       82.63761           16004 
Loop time of 7495.38 on 8 procs for 1000000 steps with 16004 atoms

Performance: 5.764 ns/day, 4.164 hours/ns, 133.415 timesteps/s
62.2% CPU use with 1 MPI tasks x 8 OpenMP threads

MPI task timing breakdown:
Section |  min time  |  avg time  |  max time  |%varavg| %total
---------------------------------------------------------------
Pair    | 7202.7     | 7202.7     | 7202.7     |   0.0 | 96.10
Neigh   | 10.4       | 10.4       | 10.4       |   0.0 |  0.14
Comm    | 41.393     | 41.393     | 41.393     |   0.0 |  0.55
Output  | 1.3757     | 1.3757     | 1.3757     |   0.0 |  0.02
Modify  | 212.31     | 212.31     | 212.31     |   0.0 |  2.83
Other   |            | 27.21      |            |       |  0.36

Nlocal:          16004 ave       16004 max       16004 min
Histogram: 1 0 0 0 0 0 0 0 0 0
Nghost:          13913 ave       13913 max       13913 min
Histogram: 1 0 0 0 0 0 0 0 0 0
Neighs:              0 ave           0 max           0 min
Histogram: 1 0 0 0 0 0 0 0 0 0
FullNghs:  1.62909e+06 ave 1.62909e+06 max 1.62909e+06 min
Histogram: 1 0 0 0 0 0 0 0 0 0

Total # of neighbors = 1629086
Ave neighs/atom = 101.79243
Neighbor list builds = 27846
Dangerous builds = 0
Total wall time: 7:58:31
