
atom_style atomic
units metal
boundary p p p
#atom_modify sort 0 0.0
newton on

read_data data.lammps
Reading data file ...
  orthogonal box = (0 0 0) to (43.790145 43.790145 87.58029)
  1 by 1 by 1 MPI processor grid
  reading atoms ...
  16004 atoms
  read_data CPU = 0.041 seconds
# replicate 10 10 20

### interactions

pair_style flare
pair_coeff * * lmp.flare
Reading potential file lmp.flare with DATE: Thu

# compute unc all flare/std/atom L_inv_lmp.flare sparse_desc_lmp.flare
# compute MaxUnc all reduce max c_unc

mass 1 12.011000
mass 2 28.085000

thermo_style custom step temp press cpu pxx pyy pzz pxy pxz pyz ke pe etotal vol lx ly lz atoms    #c_MaxUnc
thermo 1000
timestep 0.0005
restart 100000 restart_*.dat

#################### Equilibrate at P and T_es ##############################
velocity all create $T 41928459 rot yes dist gaussian
velocity all create 2800 41928459 rot yes dist gaussian
fix mom all momentum 1000 linear 1 1 1 angular

fix 1 all npt temp $T $T $(100.0*dt) iso $P $P $(1000.0*dt)
fix 1 all npt temp 2800 $T $(100.0*dt) iso $P $P $(1000.0*dt)
fix 1 all npt temp 2800 2800 $(100.0*dt) iso $P $P $(1000.0*dt)
fix 1 all npt temp 2800 2800 0.050000000000000002776 iso $P $P $(1000.0*dt)
fix 1 all npt temp 2800 2800 0.050000000000000002776 iso 600000 $P $(1000.0*dt)
fix 1 all npt temp 2800 2800 0.050000000000000002776 iso 600000 600000 $(1000.0*dt)
fix 1 all npt temp 2800 2800 0.050000000000000002776 iso 600000 600000 0.5
dump 1 all custom 1000 1equil.bin id type x y z vx vy vz
run   10000 # report performance
Neighbor list info ...
  update every 1 steps, delay 10 steps, check yes
  max neighbors/atom: 2000, page size: 100000
  master list distance cutoff = 6
  ghost atom cutoff = 6
  binsize = 6, bins = 8 8 15
  1 neighbor lists, perpetual/occasional/extra = 1 0 0
  (1) pair flare/kk, perpetual
      attributes: full, newton on, kokkos_device
      pair build: full/bin/kk/device
      stencil: full/bin/3d
      bin: kk/device
Per MPI rank memory allocation (min/avg/max) = 15.9 | 15.9 | 15.9 Mbytes
   Step          Temp          Press           CPU            Pxx            Pyy            Pzz            Pxy            Pxz            Pyz           KinEng         PotEng         TotEng         Volume           Lx             Ly             Lz          Atoms   
         0   2800           57033.054      0              56698.886      57032.726      57367.549     -735.25824     -16.376755     -430.27097      5791.9403     -4000.2205      1791.7198      167941.93      43.790145      43.790145      87.58029           16004 
      1000   2822.3769      597750.78      6.5463047      597757.57      598205.58      597289.17     -2329.1909      4239.0842      6048.7059      5838.228       6166.4459      12004.674      141573.25      41.366655      41.366655      82.733309          16004 
      2000   2767.74        600085.13      13.10337       599525.79      599486.8       601242.82     -2182.5974      3042.9673      4154.1163      5725.2089      5881.5955      11606.804      141372.02      41.347046      41.347046      82.694092          16004 
      3000   2847.8551      601740.26      19.684571      601875.28      601325.54      602019.94     -1211.3914      1467.247       4187.0775      5890.9309      5985.3898      11876.321      141391.31      41.348927      41.348927      82.697854          16004 
      4000   2779.5267      600128.5       26.277909      600789.67      599019.52      600576.32     -1564.095       294.8715      -1739.1819      5749.5903      5924.9563      11674.547      141321.01      41.342073      41.342073      82.684146          16004 
      5000   2799.6138      599947.84      32.863502      599295.74      599890.84      600656.95      1482.4874      121.75739      70.706942      5791.1415      6034.5048      11825.646      141368.47      41.346701      41.346701      82.693401          16004 
      6000   2758.546       599635.63      39.485645      599271.55      599638.11      599997.21      538.56443      898.48644     -1557.6503      5706.1906      6044.6832      11750.874      141284.43      41.338505      41.338505      82.67701           16004 
      7000   2812.0346      598683.85      46.095824      600340.6       598988.5       596722.45      1193.3019      1852.2711      1881.4728      5816.8344      6005.4828      11822.317      141371.04      41.346951      41.346951      82.693901          16004 
      8000   2811.9186      601019.97      52.707078      600613.23      602648.04      599798.65      758.74966     -876.09201     -1218.3259      5816.5945      5956.1461      11772.741      141248.14      41.334965      41.334965      82.66993           16004 
      9000   2829.1189      596908.96      59.330353      597150.16      595480.45      598096.25      1875.8388     -1295.8617     -260.28362      5852.1743      5926.5763      11778.751      141407.42      41.350497      41.350497      82.700995          16004 
     10000   2770.6395      603244.43      65.94253       601846.37      602049.05      605837.88      36.766402     -1084.8978      293.11491      5731.2066      6079.1107      11810.317      141201.26      41.330392      41.330392      82.660783          16004 
Loop time of 65.9425 on 8 procs for 10000 steps with 16004 atoms

Performance: 6.551 ns/day, 3.663 hours/ns, 151.647 timesteps/s
60.5% CPU use with 1 MPI tasks x 8 OpenMP threads

MPI task timing breakdown:
Section |  min time  |  avg time  |  max time  |%varavg| %total
---------------------------------------------------------------
Pair    | 62.881     | 62.881     | 62.881     |   0.0 | 95.36
Neigh   | 0.066478   | 0.066478   | 0.066478   |   0.0 |  0.10
Comm    | 0.33339    | 0.33339    | 0.33339    |   0.0 |  0.51
Output  | 0.013019   | 0.013019   | 0.013019   |   0.0 |  0.02
Modify  | 2.3531     | 2.3531     | 2.3531     |   0.0 |  3.57
Other   |            | 0.2951     |            |       |  0.45

Nlocal:          16004 ave       16004 max       16004 min
Histogram: 1 0 0 0 0 0 0 0 0 0
Nghost:          13819 ave       13819 max       13819 min
Histogram: 1 0 0 0 0 0 0 0 0 0
Neighs:              0 ave           0 max           0 min
Histogram: 1 0 0 0 0 0 0 0 0 0
FullNghs:  1.63218e+06 ave 1.63218e+06 max 1.63218e+06 min
Histogram: 1 0 0 0 0 0 0 0 0 0

Total # of neighbors = 1632180
Ave neighs/atom = 101.98575
Neighbor list builds = 168
Dangerous builds = 0
run  990000
Per MPI rank memory allocation (min/avg/max) = 16.09 | 16.09 | 16.09 Mbytes
   Step          Temp          Press           CPU            Pxx            Pyy            Pzz            Pxy            Pxz            Pyz           KinEng         PotEng         TotEng         Volume           Lx             Ly             Lz          Atoms   
     10000   2770.6395      603244.43      0              601846.37      602049.05      605837.88      36.766402     -1084.8978      293.11491      5731.2066      6079.1107      11810.317      141201.26      41.330392      41.330392      82.660783          16004 
     11000   2799.3364      602445.09      6.6233499      601923.57      603185.05      602226.64     -3402.1093     -66.081772     -733.0646       5790.5675      6051.9253      11842.493      141220.49      41.332268      41.332268      82.664536          16004 
     12000   2798.3188      594357.93      13.253238      594629.12      594490.89      593953.77     -558.18793     -1922.2425     -1016.2551      5788.4627      5918.4482      11706.911      141465.68      41.356175      41.356175      82.71235           16004 
     13000   2808.1222      603253.41      19.868093      602634         603340.86      603785.37     -2226.8039      2593.2074     -2665.2653      5808.7414      6104.0861      11912.828      141237.95      41.333972      41.333972      82.667943          16004 
     14000   2794.8774      600281.72      26.481676      600391.59      601070.2       599383.38      5662.0668     -693.6087       1086.4351      5781.344       5997.1576      11778.502      141287.2       41.338776      41.338776      82.677551          16004 
     15000   2813.0595      599396.62      33.10286       600398.31      598820.23      598971.33     -1045.6023      2277.2096     -1307.3435      5818.9544      6031.5738      11850.528      141341.07      41.344029      41.344029      82.688057          16004 
     16000   2802.4436      600516.18      39.722069      601352.85      600652.29      599543.4      -395.08725      900.08808     -3966.927       5796.9949      5983.2067      11780.202      141250.18      41.335165      41.335165      82.67033           16004 
     17000   2782.4319      598917.34      46.349993      599382.71      598577.59      598791.73     -864.30965      2454.8448      799.55028      5755.5998      6067.3851      11822.985      141352.21      41.345115      41.345115      82.69023           16004 
     18000   2805.973       596497.94      52.986985      595838.03      596868.24      596787.56      1304.4386      1301.713      -539.52991      5804.2958      5967.5205      11771.816      141449.82      41.354629      41.354629      82.709259          16004 
     19000   2792.6905      610799.39      59.600026      610604.03      609414.06      612380.09      1144.4625     -3190.8786      2284.5304      5776.8203      6191.6697      11968.49       140909.19      41.301875      41.301875      82.603751          16004 
     20000   2809.1413      597442.96      66.21138       597566.4       596916.89      597845.6      -305.93265      3436.8534     -63.413905      5810.8495      5914.0812      11724.931      141384.63      41.348275      41.348275      82.696551          16004 
     21000   2822.9225      600481.45      72.833332      601791.01      600511.57      599141.77      1258.8198     -2468.7743     -1586.0909      5839.3566      5937.3485      11776.705      141292.57      41.339299      41.339299      82.678599          16004 
     22000   2805.2827      600590.17      79.448922      599558.82      600481.05      601730.64      2201.547      -4006.9957      2670.0041      5802.8677      6018.5358      11821.404      141310.63      41.341061      41.341061      82.682121          16004 
     23000   2751.3944      598871         86.074672      598568.83      598462.77      599581.41     -753.10427     -296.83953      293.25277      5691.3971      5998.0592      11689.456      141330.83      41.34303       41.34303       82.686061          16004 
     24000   2800.632       600025.58      92.710402      600179.92      598784.63      601112.18     -2528.9574      860.13355     -1422.2952      5793.2477      6026.868       11820.116      141295.18      41.339553      41.339553      82.679107          16004 
     25000   2752.9203      599993.24      99.328705      602104.29      599121.1       598754.32     -1843.3566      2177.3657      523.57037      5694.5536      5975.2728      11669.826      141253.3       41.335469      41.335469      82.670937          16004 
     26000   2803.9608      591548.67      105.94418      591330.53      591531.57      591783.91     -1958.1869      1431.9218      617.66924      5800.1334      5954.0359      11754.169      141622.19      41.371421      41.371421      82.742841          16004 
     27000   2787.8913      603683.15      112.56012      603458.58      605333.78      602257.08     -307.1336      -1511.4168     -1359.4512      5766.8928      6083.5334      11850.426      141113.07      41.321786      41.321786      82.643572          16004 
     28000   2776.4429      600032.96      119.17677      600510.89      599946.13      599641.86     -588.18653      1410.9327     -2115.5645      5743.2112      5989.7776      11732.989      141270.99      41.337194      41.337194      82.674389          16004 
     29000   2801.0477      598038.65      125.80247      595784.25      598925.34      599406.36     -1569.2935     -3185.4561      1299.7026      5794.1076      5985.7121      11779.82       141330.22      41.34297       41.34297       82.685941          16004 
     30000   2796.9161      602848.2       132.43847      602457.95      602788.46      603298.19      39.446704     -337.32611     -475.30079      5785.5611      6000.0522      11785.613      141163.36      41.326694      41.326694      82.653389          16004 
     31000   2770.6615      598161.8       139.05707      596902.87      598305.33      599277.22     -329.05453      1083.5412     -961.16362      5731.2522      6005.953       11737.205      141349.37      41.344838      41.344838      82.689676          16004 
     32000   2802.6676      600423.08      145.66891      599636.33      601326.37      600306.55      3463.537       982.42799     -2063.8214      5797.4583      6002.3071      11799.765      141330.26      41.342975      41.342975      82.685949          16004 
     33000   2774.8909      605871.49      152.2856       605295.61      606166.93      606151.93     -1342.6738     -4860.4929     -1441.9607      5740.0009      6031.2471      11771.248      141079.86      41.318544      41.318544      82.637088          16004 
     34000   2783.8357      593522.31      158.90428      592338.74      594485.32      593742.85     -1544.8655      4236.1424     -2360.9769      5758.5036      5966.4008      11724.904      141530.14      41.362456      41.362456      82.724911          16004 
     35000   2810.9128      602833.88      165.52891      603072         604384.23      601045.41     -54.29226       253.03386      1583.2896      5814.5139      5991.6773      11806.191      141172.41      41.327578      41.327578      82.655155          16004 
     36000   2816.8958      599857.82      172.16394      599225.44      599175.07      601172.97     -902.15167     -2117.7399      2092.6954      5826.8902      6028.9399      11855.83       141274.38      41.337525      41.337525      82.675049          16004 
     37000   2770.5795      599573.99      178.78712      600169.36      598236.47      600316.14     -5003.4786     -2661.2389      1892.1854      5731.0825      5974.4757      11705.558      141283.43      41.338408      41.338408      82.676816          16004 
     38000   2792.7087      602698.96      185.40112      602443.5       602907.85      602745.53     -1856.4019      223.55693      2274.6466      5776.8578      6021.3282      11798.186      141164.56      41.326811      41.326811      82.653622          16004 
     39000   2800.8922      599675.41      192.01772      601216.11      597916.87      599893.24     -682.27896      3146.7291     -1186.0426      5793.7857      5994.0315      11787.817      141296.79      41.33971       41.33971       82.679421          16004 
     40000   2814.7606      593041.87      198.63528      591545.92      592894.57      594685.13      1042.8197      952.24576      3229.727       5822.4732      5961.698       11784.171      141545.72      41.363973      41.363973      82.727947          16004 
     41000   2784.872       605274.29      205.25716      605796.37      604948.84      605077.66      1694.2744     -2581.8952      81.58199       5760.6473      6089.6224      11850.27       141105.44      41.321041      41.321041      82.642082          16004 
     42000   2828.1779      598395.76      211.89114      598164.47      598278.56      598744.26     -2350.6551      963.15135      2896.8329      5850.2277      5984.4383      11834.666      141326.71      41.342629      41.342629      82.685257          16004 
     43000   2783.2368      599346.37      218.51524      599453.41      599900.6       598685.09     -273.26087     -2278.4583      2329.1394      5757.2648      5944.1831      11701.448      141299.09      41.339935      41.339935      82.679869          16004 
     44000   2769.9214      602717.08      225.12669      603163.53      602034.25      602953.45     -281.82782     -674.57042     -1267.4382      5729.7212      6112.5289      11842.25       141177.96      41.328118      41.328118      82.656237          16004 
     45000   2784.4648      596848.15      231.73654      597053.1       597468.58      596022.78     -1141.1842     -747.6101      -1590.8257      5759.8048      5960.9502      11720.755      141388.89      41.348691      41.348691      82.697381          16004 
     46000   2775.5039      601318.57      238.35321      601208.03      601531.42      601216.25     -1254.0519      738.73651      1895.4593      5741.2688      6012.839       11754.108      141255.44      41.335677      41.335677      82.671355          16004 
     47000   2798.9406      606806.49      244.97231      607529.3       606636.52      606253.66     -1621.1554     -2963.7608     -767.44377      5789.7489      6104.4755      11894.224      141102.91      41.320794      41.320794      82.641587          16004 
     48000   2777.6887      596879.51      251.60003      596838.85      597436.48      596363.19      863.82749     -48.442983      835.86901      5745.7883      5961.4418      11707.23       141422.12      41.35193       41.35193       82.703861          16004 
     49000   2785.7255      601187.54      258.22684      600637.7       602075.59      600849.33      277.25525     -510.37423     -90.504618      5762.4128      6049.959       11812.372      141264.27      41.336539      41.336539      82.673078          16004 
     50000   2792.8163      600544.67      264.84117      601626.51      600643.25      599364.26      495.08458      963.08414     -2992.5688      5777.0805      6076.1555      11853.236      141317.68      41.341748      41.341748      82.683495          16004 
     51000   2815.5396      598286.15      271.44888      599239.56      598411.62      597207.27     -163.15459      1126.7248      417.18391      5824.0847      5976.0843      11800.169      141369.82      41.346832      41.346832      82.693664          16004 
     52000   2819.2724      608551.96      278.06508      607957.06      609785.99      607912.84     -3533.5043     -2149.5055      3436.5784      5831.8061      6124.6737      11956.48       140995.17      41.310274      41.310274      82.620549          16004 
     53000   2779.7295      597892.26      284.68635      597567.38      598981.43      597127.95     -750.50184     -362.06007     -551.13859      5750.0098      6039.4113      11789.421      141370.65      41.346913      41.346913      82.693826          16004 
     54000   2800.9544      598906.37      291.31985      598525.05      599367.31      598826.75     -1385.162       3092.2319     -277.72054      5793.9144      6044.5641      11838.479      141320.35      41.342008      41.342008      82.684016          16004 
     55000   2797.387       600489.91      297.95296      601365.24      599617.3       600487.2       1823.065       98.62144       666.66013      5786.5351      6021.0301      11807.565      141228.53      41.333052      41.333052      82.666105          16004 
     56000   2818.3658      597367.32      304.5753       597782.38      597014.92      597304.64     -1042.0069     -408.82018     -1024.3421      5829.9309      6022.6624      11852.593      141357.12      41.345594      41.345594      82.691188          16004 
     57000   2810.9236      600296.27      311.19403      603280.24      598839.41      598769.15     -2465.8344     -779.24146      2838.147       5814.5363      5992.5605      11807.097      141226.74      41.332878      41.332878      82.665757          16004 
     58000   2823.1299      604866.37      317.81754      604998.42      605117.83      604482.86      89.717345     -1409.5147      3181.3254      5839.7855      6180.1288      12019.914      141121.68      41.322626      41.322626      82.645252          16004 
     59000   2783.0675      595177.57      324.44316      594104.95      596566.8       594860.97     -2696.1093     -1377.4264     -2715.7843      5756.9146      5985.0553      11741.97       141450.15      41.354662      41.354662      82.709324          16004 
     60000   2811.8822      601834.8       331.0766       601471.63      602756.95      601275.82      183.51488     -1820.4517     -1765.4653      5816.5193      6013.6321      11830.151      141226.38      41.332843      41.332843      82.665687          16004 
     61000   2804.0863      602910.55      337.71359      604510.84      602228.52      601992.29     -73.376815      1383.4837      141.90438      5800.3929      6016.3518      11816.745      141164.51      41.326806      41.326806      82.653612          16004 
     62000   2815.3897      596826.82      344.33867      598713.92      597043.49      594723.05      1424.6883     -959.23318      2209.7086      5823.7747      6020.3965      11844.171      141384.75      41.348287      41.348287      82.696575          16004 
     63000   2814.1445      599023.16      350.95932      600406.32      596232.17      600430.98     -112.54462      228.64003      351.38226      5821.199       5956.0087      11777.208      141286.94      41.33875       41.33875       82.6775            16004 
     64000   2815.3269      600219.15      357.58351      601142.36      599956.65      599558.44     -1865.2197      158.58971     -112.84212      5823.6447      6036.0295      11859.674      141244.77      41.334637      41.334637      82.669274          16004 
     65000   2782.8428      593750.67      364.20634      594958.37      592655.2       593638.43     -3146.47        2647.3049     -1745.9656      5756.4498      5888.1273      11644.577      141531.14      41.362553      41.362553      82.725107          16004 
     66000   2786.6109      606643.18      370.83595      606831.64      606393.15      606704.75     -561.3562       3990.6941     -2422.1685      5764.2442      6142.6087      11906.853      141096.1       41.32013       41.32013       82.640259          16004 
     67000   2807.8259      600279.87      377.47437      600577.85      600096.53      600165.24      1881.2114      1783.3997     -1656.0584      5808.1285      6040.2635      11848.392      141265.42      41.336651      41.336651      82.673301          16004 
     68000   2790.4212      597333.87      384.09803      595362.97      599077.59      597561.05     -2667.0554      1262.6545     -588.36275      5772.126       5975.9369      11748.063      141352.9       41.345182      41.345182      82.690365          16004 
     69000   2796.1722      600553.43      390.71755      599189.72      601735         600735.58      1714.0562      1368.1121     -1160.3854      5784.0223      6055.1719      11839.194      141251.43      41.335287      41.335287      82.670573          16004 
     70000   2807.1799      599893.32      397.33921      599195.27      601067.25      599417.45     -2433.4674     -3786.4317     -533.43877      5806.7922      5934.3394      11741.132      141272.81      41.337372      41.337372      82.674744          16004 
     71000   2827.8928      597507.9       403.95992      598059.48      597571.35      596892.88      2068.6158      3584.7583      1083.4442      5849.638       5912.9436      11762.582      141373.77      41.347217      41.347217      82.694433          16004 
     72000   2815.5198      606975.41      410.5858       608241.01      606492.88      606192.34      3540.8205      1353.4756      1693.0615      5824.0439      6143.6352      11967.679      141094.74      41.319996      41.319996      82.639993          16004 
     73000   2794.0296      594845.56      417.22372      595919.06      594857.88      593759.74     -422.04522      117.8966       358.82712      5779.5903      5901.6208      11681.211      141477.22      41.3573        41.3573        82.7146            16004 
     74000   2809.1088      601391.13      423.84728      602545.58      601961.44      599666.35      2159.5295      14.779293     -1587.0437      5810.7823      6019.2445      11830.027      141242.88      41.334453      41.334453      82.668905          16004 
     75000   2767.6194      601681.89      430.46601      603243.17      601416.19      600386.32     -351.74151     -123.01985     -875.6813       5724.9594      6031.7234      11756.683      141199.82      41.330252      41.330252      82.660504          16004 
     76000   2776.9272      594901.31      437.09204      596803.01      593804.83      594096.08     -37.206301      3142.4745      2404.3702      5744.2129      6016.9352      11761.148      141442.15      41.353882      41.353882      82.707765          16004 
     77000   2794.39        601920.42      443.71271      601367.96      602993.48      601399.81      237.01843     -673.29871     -1818.1973      5780.3356      6013.4728      11793.808      141189.29      41.329224      41.329224      82.658448          16004 
     78000   2797.8288      602254.91      450.33387      603937.33      602584.02      600243.38      2940.2079      1382.9464     -2779.7739      5787.449       5988.4324      11775.881      141201.03      41.330369      41.330369      82.660738          16004 
     79000   2811.9344      594268.49      456.97167      593697.69      594395.42      594712.37      219.96227      112.67582      1392.0144      5816.6273      5968.5403      11785.168      141478.25      41.3574        41.3574        82.714799          16004 
     80000   2794.9993      605035.55      463.59639      605834.24      604336.71      604935.72      808.97612     -2477.6167     -2003.1726      5781.5961      6055.2073      11836.803      141083.03      41.318853      41.318853      82.637707          16004 
     81000   2833.0169      597850.45      470.21584      595834.79      599386.68      598329.87      1648.5069     -2480.8253      161.05858      5860.2374      5986.8392      11847.077      141423.66      41.35208       41.35208       82.70416           16004 
     82000   2807.263       599899.55      476.83598      600027.39      599904.48      599766.78      1645.6866      2101.2091     -2385.1416      5806.9642      5982.9256      11789.89       141270.94      41.33719       41.33719       82.67438           16004 
     83000   2817.2574      604786.09      483.44992      605198.82      604357.66      604801.8      -183.81939      4601.6007      1311.7173      5827.6381      6136.1806      11963.819      141134.26      41.323854      41.323854      82.647708          16004 
     84000   2821.299       595360.45      490.06404      595322.16      595899.23      594859.95      534.59207      2517.234      -2213.5233      5835.9982      5929.3993      11765.398      141439.24      41.353599      41.353599      82.707197          16004 
     85000   2807.8519      600899.94      496.68343      601337.61      599809.97      601552.24      2137.66       -972.87622      384.72611      5808.1823      5997.3755      11805.558      141226.36      41.332841      41.332841      82.665681          16004 
     86000   2818.4485      602955.98      503.30324      602348.92      602248.62      604270.39     -1874.9523      4076.7979      808.77953      5830.102       6059.3434      11889.445      141184.39      41.328746      41.328746      82.657492          16004 
     87000   2792.06        594869.63      509.91863      594238.78      594286.37      596083.75     -2499.1138     -1275.0596     -1926.996       5775.516       5907.9879      11683.504      141388.69      41.348671      41.348671      82.697342          16004 
     88000   2801.5207      601777.84      516.52934      600711.81      603159.49      601462.22     -2575.7351     -1632.2938      691.13355      5795.086       6040.9097      11835.996      141209.68      41.331214      41.331214      82.662427          16004 
     89000   2766.5594      602738.64      523.13936      602543.04      602947.89      602725        -503.44051      2612.0526      1164.1013      5722.7667      6037.4393      11760.206      141178.26      41.328148      41.328148      82.656297          16004 
     90000   2822.3935      597293.22      529.7406       596773.42      597328.88      597777.36     -1771.4894     -1806.1154      4974.6462      5838.2623      5987.6053      11825.868      141372.15      41.347059      41.347059      82.694117          16004 
     91000   2814.1018      601076.23      536.34244      602241.75      599816.45      601170.5      -823.59669      2576.647      -359.62113      5821.1106      6092.469       11913.58       141222.65      41.332479      41.332479      82.664958          16004 
     92000   2794.5111      598443.88      542.94244      597634.61      597107.81      600589.22      1591.8728      2071.2428      800.5474       5780.5862      6025.5349      11806.121      141324.12      41.342376      41.342376      82.684751          16004 
     93000   2779.946       596542.91      549.5455       595730.12      597999.78      595898.82      1348.9687      2381.6602      3519.6773      5750.4576      6008.4943      11758.952      141350.62      41.34496       41.34496       82.68992           16004 
     94000   2800.5263      608330.35      556.14751      609106.32      606969.26      608915.47      1656.653       197.14369      1733.1275      5793.0291      6208.9861      12002.015      140975.25      41.308329      41.308329      82.616658          16004 
     95000   2811.6809      597003.4       562.75081      598253.92      595081.76      597674.53     -829.28893      1246.5001      902.33699      5816.1029      5945.4598      11761.563      141372.74      41.347116      41.347116      82.694232          16004 
     96000   2804.2306      599528.43      569.35039      599067.78      600437.64      599079.86     -1644.9512      1185.2258     -2613.022       5800.6915      6018.6553      11819.347      141275.1       41.337596      41.337596      82.675191          16004 
     97000   2786.6678      601435.62      575.95067      601669.35      601146.39      601491.11     -2348.1611      638.75959     -2623.2319      5764.3619      5994.843       11759.205      141205.26      41.330783      41.330783      82.661566          16004 
     98000   2803.8225      599420.09      582.55201      598299.38      600063.17      599897.72     -206.03348      21.106525     -2741.7251      5799.8473      6061.038       11860.885      141289.24      41.338974      41.338974      82.677948          16004 
     99000   2786.3857      597300.96      589.14963      596565.09      597603.59      597734.2       1113.4272     -1247.0767     -1647.4869      5763.7784      6004.8677      11768.646      141358.32      41.34571       41.34571       82.691421          16004 
    100000   2800.2321      604744.13      595.75564      604500.71      605056.92      604674.77     -860.4918       105.62165      2278.0533      5792.4203      6109.8267      11902.247      141114.32      41.321908      41.321908      82.643816          16004 
    101000   2799.6905      596567.26      602.35292      597738.55      596513.96      595449.26     -2362.47        2310.4996      1307.5263      5791.3001      5946.8732      11738.173      141361.74      41.346044      41.346044      82.692089          16004 
    102000   2813.5938      597342.67      608.95327      596976.1       597722.08      597329.83      845.69829      3639.951      -2225.3158      5820.0597      5972.9488      11793.008      141383.06      41.348123      41.348123      82.696246          16004 
    103000   2790.2407      602103.03      615.55064      603638.27      601218.95      601451.88      342.35423      3400.8694      3153.7346      5771.7528      6056.8656      11828.618      141192.09      41.329498      41.329498      82.658995          16004 
    104000   2803.2899      599567.82      622.14926      599296.62      599207.63      600199.21     -1749.8159     -2828.8286     -1797.2136      5798.7455      6046.3619      11845.107      141309.14      41.340915      41.340915      82.68183           16004 
    105000   2777.7166      599434.21      628.74694      600403         599934.99      597964.64     -343.48414      175.1712       784.78277      5745.8459      5996.0174      11741.863      141284.5       41.338512      41.338512      82.677024          16004 
    106000   2818.1862      599920.66      635.34494      599420.16      601153.04      599188.78      418.7929      -753.2085      -101.25175      5829.5594      6015.8951      11845.454      141299.82      41.340007      41.340007      82.680013          16004 
    107000   2780.0144      598948.28      641.94202      599301.42      598807.37      598736.04      1384.4903      2817.7402      181.89894      5750.5991      5999.1227      11749.722      141292.34      41.339276      41.339276      82.678553          16004 
    108000   2784.2175      600448.05      648.54146      600623.64      601306.94      599413.59      3356.9892     -3203.8905     -1204.9169      5759.2933      6031.3489      11790.642      141222.35      41.33245       41.33245       82.664899          16004 
    109000   2810.1111      601454.28      655.13996      602070.26      600421.24      601871.34     -4188.9607     -1468.5569      1340.7168      5812.8555      6014.1456      11827.001      141202.5       41.330513      41.330513      82.661025          16004 
    110000   2801.2858      591420.06      661.73869      591425.36      591502.62      591332.21      1057.5447      825.18121      1702.1272      5794.6         5907.9227      11702.523      141551.58      41.364544      41.364544      82.729088          16004 
    111000   2820.9636      600944.79      668.33339      601878.03      600721.02      600235.32     -2844.5473     -1391.5059     -9.0008004      5835.3046      6036.318       11871.623      141246.23      41.334779      41.334779      82.669558          16004 
    112000   2774.7492      599367.7       674.93059      599976.43      599605.49      598521.17      1534.3611      1682.3537      2032.3315      5739.7077      6007.4284      11747.136      141269.69      41.337068      41.337068      82.674135          16004 
    113000   2783.0151      600723.13      681.53017      600823.71      599942.65      601403.02      13.164125      2103.0076     -4141.9634      5756.8061      5963.9794      11720.785      141204.49      41.330707      41.330707      82.661415          16004 
    114000   2758.7743      599475.56      688.12846      599522.13      599007.63      599896.91     -3909.9169     -1020.9978     -1028.4851      5706.6629      6085.8526      11792.516      141268.55      41.336956      41.336956      82.673913          16004 
    115000   2772.1642      598949.17      694.72802      598512.64      598694.25      599640.62      2174.4276      895.87755     -754.15515      5734.3605      6024.2537      11758.614      141327.72      41.342727      41.342727      82.685454          16004 
    116000   2817.9618      605932.59      701.32722      604843.41      605613.75      607340.63      2403.4196      179.66764      942.15194      5829.0952      6068.9752      11898.07       141055.81      41.316196      41.316196      82.632392          16004 
    117000   2785.6588      596652.27      707.92853      597241.61      596169.35      596545.86     -2772.6841      1132.8421      741.94056      5762.2749      5926.0161      11688.291      141385.04      41.348315      41.348315      82.69663           16004 
    118000   2810.0562      598655.42      714.52978      598390.6       598404.66      599171         3235.3284      3672.4729      753.59495      5812.742       6010.7874      11823.529      141335.32      41.343468      41.343468      82.686936          16004 
    119000   2800.0866      603579.89      721.12842      603871.05      602207.03      604661.59      532.96717     -1445.3286      3968.7922      5792.1195      5978.9892      11771.109      141170.64      41.327404      41.327404      82.654809          16004 
    120000   2797.9171      597564.96      727.7293       598467.41      597126.94      597100.53      1132.0679      3352.4918      720.92181      5787.6317      6061.3899      11849.022      141375.22      41.347359      41.347359      82.694717          16004 
    121000   2781.3661      601880.13      734.32821      603314.25      600945.28      601380.88      29.317206      110.96011      274.38895      5753.3951      6030.073       11783.468      141246.54      41.33481       41.33481       82.669619          16004 
    122000   2796.2173      603672.52      740.92697      604136.49      603896.93      602984.12      852.2833      -3017.3274      3299.5789      5784.1156      6062.7377      11846.853      141167.92      41.327139      41.327139      82.654278          16004 
    123000   2757.6929      594153.48      747.52413      593779.16      593785.58      594895.71      1138.2438     -957.57855      4060.0323      5704.4259      5935.604       11640.03       141489.9       41.358535      41.358535      82.71707           16004 
    124000   2814.3796      601688.13      754.12198      601797.54      601988.43      601278.42     -4032.1118     -2747.5257     -2455.4119      5821.6851      6030.6521      11852.337      141238.28      41.334004      41.334004      82.668007          16004 
    125000   2798.6687      601516.05      760.71964      603128.95      599287.97      602131.23     -1033.254       668.31752      1000.2483      5789.1864      5965.9051      11755.091      141190.06      41.329299      41.329299      82.658598          16004 
    126000   2782.8465      597363.72      767.3199       599055.56      594478.76      598556.83     -572.52283      210.56247      707.39104      5756.4574      6030.0649      11786.522      141345.75      41.344485      41.344485      82.68897           16004 
    127000   2788.4747      602010.69      773.91832      602689.77      601372.99      601969.3       1145.1956      3411.5851     -289.09816      5768.0997      6038.5252      11806.625      141186.06      41.328909      41.328909      82.657818          16004 
    128000   2776.8032      598783.36      780.51569      598223         598473.98      599653.1      -3066.6753     -705.1511      -3200.4038      5743.9566      6013.4809      11757.438      141279.46      41.338021      41.338021      82.676042          16004 
    129000   2826.7739      598168.27      787.11446      596744.37      599806         597954.44     -2523.0604      867.13758      690.50778      5847.3234      5948.6273      11795.951      141357.71      41.345651      41.345651      82.691303          16004 
    130000   2793.4131      607967.94      793.71271      608051.45      607133.9       608718.46     -1556.9212     -2370.2071     -926.50233      5778.315       6109.0229      11887.338      141015.27      41.312238      41.312238      82.624476          16004 
    131000   2808.0161      593664.69      800.31362      592608.85      594896.81      593488.42      324.84566     -461.87953      1751.9371      5808.522       5874.7268      11683.249      141468.6       41.35646       41.35646       82.712919          16004 
    132000   2795.9369      601830.19      806.91491      599818.85      603149.67      602522.04      3877.1673      1827.3839      1370.0858      5783.5355      6038.2201      11821.756      141221.21      41.332338      41.332338      82.664677          16004 
    133000   2798.6414      598256.35      813.51886      598745.6       597993.34      598030.1      -3427.8448     -4572.6521     -1256.1092      5789.1298      5996.6486      11785.778      141313.07      41.341299      41.341299      82.682597          16004 
    134000   2791.5263      600378.12      820.12023      601329.11      599278.64      600526.6       1375.3782      1504.4585      773.74563      5774.4119      5960.8781      11735.29       141261.87      41.336305      41.336305      82.672609          16004 
    135000   2813.0048      600067.99      826.72069      599752.41      599444.28      601007.3      -1436.9042      2271.5233      2028.4178      5818.8413      6008.8659      11827.707      141281.46      41.338216      41.338216      82.676432          16004 
    136000   2787.6298      596015.22      833.32166      595427.94      596434.79      596182.93     -0.79253509     994.04796     -2193.2078      5766.352       5902.4524      11668.804      141394.22      41.34921       41.34921       82.698421          16004 
    137000   2782.8882      602174.78      839.92679      603209.92      602493.27      600821.14      3966.1581     -5024.2155     -898.27361      5756.5437      6027.0603      11783.604      141206.04      41.330858      41.330858      82.661716          16004 
    138000   2844.176       604008.79      846.52925      605024.16      604627.11      602375.09      1413.8594     -8.4868302     -237.443        5883.3206      6118.2432      12001.564      141168.53      41.327199      41.327199      82.654398          16004 
    139000   2785.0994      599380.17      853.12761      599410.26      600640.91      598089.34      178.07184      1377.4231     -2913.347       5761.1177      5971.8738      11732.991      141316.35      41.341618      41.341618      82.683235          16004 
    140000   2831.3643      600683.35      859.72756      600655.07      600825.96      600569.03     -1393.624       2400.4998     -296.22385      5856.819       6000.5853      11857.404      141293.21      41.339361      41.339361      82.678723          16004 
    141000   2805.3         600973.62      866.32737      601072.25      600409.12      601439.48     -3272.822       672.16486      279.76924      5802.9036      5976.5402      11779.444      141248.97      41.335047      41.335047      82.670094          16004 
    142000   2769.4587      596976.28      872.92696      597381.62      596348.32      597198.9       583.3852       3296.4955      1733.8527      5728.7642      5959.0106      11687.775      141336.88      41.34362       41.34362       82.687239          16004 
    143000   2814.2657      600582.6       879.52784      599789.98      599968.94      601988.89     -3151.8232     -914.94234     -101.66736      5821.4495      5982.8113      11804.261      141253.24      41.335463      41.335463      82.670925          16004 
    144000   2786.6169      603987.35      886.12264      604580.17      603877.51      603504.38      480.41199     -3820.8757      2886.5782      5764.2566      6036.76        11801.017      141132.9       41.323722      41.323722      82.647443          16004 
    145000   2797.5482      594507.19      892.72481      594286.44      596445.92      592789.2      -125.65733      264.97237     -4231.4594      5786.8685      5946.9618      11733.83       141508.08      41.360307      41.360307      82.720613          16004 
    146000   2798.7879      600546.96      899.32674      599545.09      601933.08      600162.7      -3195.7429     -2750.6877      3333.7183      5789.4331      6054.4061      11843.839      141265.6       41.336669      41.336669      82.673337          16004 
    147000   2793.3328      598224.26      905.92696      598680.22      597680.34      598312.23      472.95371     -1315.5711     -1710.4308      5778.1488      5994.922       11773.071      141341.26      41.344047      41.344047      82.688094          16004 
    148000   2801.3146      600023.86      912.5276       599587.77      600624.14      599859.68     -823.08417      56.160816     -1347.5881      5794.6595      5999.3593      11794.019      141258.8       41.336005      41.336005      82.67201           16004 
    149000   2808.6601      599847.52      919.1309       600170.98      599337.35      600034.23     -5611.8907     -1045.1622     -761.54464      5809.8542      5967.2762      11777.13       141304.96      41.340507      41.340507      82.681014          16004 
    150000   2852.088       594035.65      925.7318       595488.59      593350.77      593267.6      -500.12615     -1726.6548      3230.6422      5899.6869      5939.8827      11839.57       141546.46      41.364045      41.364045      82.728091          16004 
    151000   2803.7001      608423.04      932.33308      608550.12      609186.13      607532.89      1674.3392     -497.38205     -1477.1413      5799.5942      6080.9343      11880.528      141029.73      41.31365       41.31365       82.627299          16004 
    152000   2792.9948      600070.45      938.93466      598522.92      601521.59      600166.83      2173.6185      1687.568       960.74214      5777.4497      5970.326       11747.776      141314.42      41.34143       41.34143       82.682859          16004 
    153000   2785.842       600155.07      945.53643      600587.06      600043.01      599835.14     -3069.5634     -1037.4196      1636.459       5762.6538      5995.4574      11758.111      141312.46      41.341239      41.341239      82.682478          16004 
    154000   2777.4054      601895.01      952.13609      603625.96      600308.65      601750.42      1711.924      -1271.2789      2590.9003      5745.2023      6018.1882      11763.391      141235.06      41.33369       41.33369       82.667379          16004 
    155000   2807.426       598277.5       958.73748      596479.95      600009.9       598342.65      1597.7043      2596.5447     -3756.9423      5807.3012      6022.8319      11830.133      141412.92      41.351033      41.351033      82.702066          16004 
    156000   2777.6027      598338.81      965.33997      597290.58      598235.61      599490.25     -3213.4584      1818.5592      1451.8379      5745.6103      5973.9947      11719.605      141338.8       41.343807      41.343807      82.687614          16004 
    157000   2786.3216      603752.26      971.94212      606156.56      602708.65      602391.58     -368.88665      2244.0501      990.28941      5763.6458      6115.9931      11879.639      141111.85      41.321666      41.321666      82.643333          16004 
    158000   2796.312       594001.24      978.54377      593545.65      594766.38      593691.71      198.08206      1558.0084      2917.3997      5784.3115      5908.6928      11693.004      141464.16      41.356027      41.356027      82.712054          16004 
    159000   2778.8751      601862.47      985.14843      601724.07      601420.47      602442.86      424.54        -890.24225      1107.3029      5748.2424      6019.4726      11767.715      141199.23      41.330194      41.330194      82.660388          16004 
    160000   2801.8043      601352.49      991.74727      601869.54      601670.83      600517.09      4628.5655     -822.57682      2735.7526      5795.6725      6001.6382      11797.311      141220.98      41.332316      41.332316      82.664632          16004 
    161000   2798.841       598169.75      998.34785      597080.36      599152.76      598276.13     -1189.5526      1511.1596     -2640.0012      5789.5428      5970.6598      11760.203      141327.58      41.342713      41.342713      82.685426          16004 
    162000   2786.463       605238.45      1004.9487      606054.75      605850.32      603810.3       2179.2385     -937.98594      213.0404       5763.9384      6104.0226      11867.961      141079.06      41.318466      41.318466      82.636933          16004 
    163000   2787.5174      599597.58      1011.5474      599446.94      600739.54      598606.27     -9.504317       979.5496       250.97058      5766.1193      6010.7876      11776.907      141266.34      41.336741      41.336741      82.673483          16004 
    164000   2799.641       595161.86      1018.1503      594142.84      595555.16      595787.59      1054.7095      2064.3961      329.96168      5791.1976      5966.295       11757.493      141450.2       41.354667      41.354667      82.709333          16004 
    165000   2774.4822      603669.86      1024.7544      604948.59      602820.4       603240.59      1634.3295      2155.7099     -792.71708      5739.1554      6012.832       11751.987      141131.55      41.32359       41.32359       82.647179          16004 
    166000   2805.7057      600132.21      1031.3621      599912.58      601960.23      598523.82      2487.6902     -103.61599      552.78582      5803.7428      6036.1609      11839.904      141286.79      41.338735      41.338735      82.677471          16004 
    167000   2796.343       598698.03      1037.9721      599529.96      598022.81      598541.3       2437.8579     -2883.2428     -2936.2655      5784.3756      6007.6104      11791.986      141355.94      41.345478      41.345478      82.690956          16004 
    168000   2798.4961      603685.82      1044.5835      603530.38      603895.79      603631.29      1017.689       217.1163      -1799.8224      5788.8295      6034.8983      11823.728      141157.91      41.326162      41.326162      82.652323          16004 
    169000   2780.2949      595743.03      1051.1864      595410.58      596297.56      595520.95     -4870.1595      1149.8857     -2229.3965      5751.1792      5881.9726      11633.152      141411.5       41.350895      41.350895      82.701789          16004 
    170000   2800.8588      599917.68      1057.7942      601083.57      598677.6       599991.87     -825.09985      475.37644      1716.129       5793.7167      5988.8415      11782.558      141282.3       41.338298      41.338298      82.676596          16004 
    171000   2805.7431      601628.66      1064.3982      602049.55      601749.17      601087.25      1459.4576      4037.3069     -4456.0644      5803.8202      6017.3725      11821.193      141174.16      41.327748      41.327748      82.655496          16004 
    172000   2812.0193      596562.53      1071.0041      595879         597896.65      595911.94     -319.66803      2251.1914     -2604.371       5816.8029      5958.5643      11775.367      141390.8       41.348877      41.348877      82.697755          16004 
    173000   2801.24        597980.25      1077.6171      596923.83      598126.51      598890.4      -535.1395      -1154.0729     -757.27228      5794.5054      5916.53        11711.035      141298.1       41.339838      41.339838      82.679676          16004 
    174000   2819.7282      601717.67      1084.231       602936.28      599960.2       602256.53     -1279.2275      2696.1923     -821.5545       5832.7491      6008.5836      11841.333      141233.48      41.333535      41.333535      82.667071          16004 
    175000   2786.9892      598540.08      1090.8451      599442.41      598237.77      597940.06      2477.7472      1114.0401     -2057.4398      5765.0268      6003.2163      11768.243      141337.5       41.34368       41.34368       82.68736           16004 
    176000   2802.0228      598537.06      1097.4632      598846.1       599397.67      597367.4       521.80422      89.123917     -2133.5552      5796.1245      5960.4373      11756.562      141313.23      41.341314      41.341314      82.682627          16004 
    177000   2801.4201      608699.41      1104.0797      608814.44      609007.79      608276         390.81251     -416.71642     -45.232055      5794.8779      6116.8649      11911.743      140974.87      41.308292      41.308292      82.616583          16004 
    178000   2797.589       594202.93      1110.7071      595905.5       593265.84      593437.43     -297.24362     -4800.0827      287.02338      5786.9529      5957.6494      11744.602      141488.82      41.35843       41.35843       82.71686           16004 
    179000   2815.517       600223.14      1117.3355      599010.77      601647.14      600011.51     -2685.5697     -1033.321      -1336.6162      5824.038       5974.8477      11798.886      141245.9       41.334747      41.334747      82.669495          16004 
    180000   2796.7879      600545.54      1123.9562      601813.2       600019.12      599804.31      1854.358       970.75608     -769.02451      5785.2959      6042.1503      11827.446      141294.09      41.339448      41.339448      82.678896          16004 
    181000   2824.5731      597862.64      1130.5777      597744.9       597451.26      598391.75     -1399.3184      309.01661      1687.9599      5842.771       5974.1923      11816.963      141375.51      41.347387      41.347387      82.694773          16004 
    182000   2818.7073      601664.13      1137.2008      602885.05      601144.53      600962.79     -3802.9955     -2879.6357      2890.5492      5830.6373      6043.6756      11874.313      141257.13      41.335842      41.335842      82.671685          16004 
    183000   2783.7637      600039.23      1143.8232      599431.59      600901.49      599784.62      2143.5222      967.11428      225.55321      5758.3547      5991.6399      11749.995      141294.14      41.339452      41.339452      82.678904          16004 
    184000   2777.72        595294.35      1150.4513      595451.45      595107.24      595324.35      1634.9438     -470.7351       1000.5193      5745.853       5944.5541      11690.407      141470.43      41.356638      41.356638      82.713275          16004 
    185000   2803.5667      605869.23      1157.0808      605900.98      605634.71      606072.01      1456.3801      53.984707      375.12461      5799.3182      6073.6925      11873.011      141114.42      41.321917      41.321917      82.643835          16004 
    186000   2829.0374      597222.11      1163.6986      597104.57      596020.42      598541.34     -272.88408      2538.975      -440.78439      5852.0056      5912.1624      11764.168      141382.86      41.348103      41.348103      82.696206          16004 
    187000   2793.4679      599890.86      1170.3216      600731.09      598457.24      600484.26     -1551.0037     -1960.8371      573.06313      5778.4282      6039.4464      11817.875      141310.77      41.341074      41.341074      82.682148          16004 
    188000   2818.4605      604606.14      1176.948       604357.99      604302.4       605158.04      784.02067      3541.4263     -1597.9234      5830.1267      6006.203       11836.33       141145.14      41.324916      41.324916      82.649832          16004 
    189000   2820.1977      596677.44      1183.5736      596240.06      595732.58      598059.7       1131.4398      60.448327     -2298.0288      5833.7203      5941.5691      11775.289      141401.24      41.349894      41.349894      82.699789          16004 
    190000   2795.7485      599112.55      1190.2081      599518.67      598534.36      599284.63      1442.8128      441.41432      3416.678       5783.1458      5973.411       11756.557      141311.33      41.341128      41.341128      82.682256          16004 
    191000   2789.6805      601480.35      1196.8473      602449.17      599851.33      602140.54     -275.08379      1304.1711     -3517.6979      5770.5939      6088.8372      11859.431      141271.48      41.337243      41.337243      82.674485          16004 
    192000   2783.6254      596080.94      1203.4741      597160.24      595057.21      596025.37     -693.08354     -2351.5724      3198.4364      5758.0687      5931.4982      11689.567      141394.94      41.349281      41.349281      82.698562          16004 
    193000   2811.46        607119.33      1210.1023      607164.74      607662.59      606530.67     -3009.3301     -4142.1742     -1568.5354      5815.6458      6129.1538      11944.8        140994.29      41.310189      41.310189      82.620377          16004 
    194000   2792.1322      599886.05      1216.7323      599301.92      600793.42      599562.82     -4445.2547      531.8781       1339.6205      5775.6654      6002.9973      11778.663      141271.47      41.337241      41.337241      82.674482          16004 
    195000   2789.5275      599062.45      1223.3565      599218.57      598675.72      599293.07     -3346.9148     -2202.4842     -1966.7061      5770.2773      5962.4401      11732.717      141268.76      41.336977      41.336977      82.673953          16004 
    196000   2814.8212      599633.27      1229.9879      599788.76      599241.3       599869.76     -2491.0006      627.83784      752.17522      5822.5986      6041.6126      11864.211      141295.05      41.339541      41.339541      82.679083          16004 
    197000   2789.5058      598718.01      1236.6242      599213.81      598705.65      598234.58     -4085.2553      3101.63       -2528.6085      5770.2325      6016.0692      11786.302      141269.69      41.337068      41.337068      82.674136          16004 
    198000   2830.6106      602269.37      1243.2515      602812.4       602287.59      601708.13      2096.1184      477.05701      2349.4181      5855.2597      5997.0068      11852.267      141200.96      41.330363      41.330363      82.660725          16004 
    199000   2804.9316      601378.3       1249.8772      601350.23      601865.37      600919.29     -830.2182       2853.5312     -1307.1456      5802.1415      5936.4772      11738.619      141234.6       41.333645      41.333645      82.66729           16004 
    200000   2801.5807      594159.95      1256.5117      595784.96      593388.73      593306.17      2331.4293     -370.80866      1690.0048      5795.2101      5937.0411      11732.251      141472.05      41.356796      41.356796      82.713591          16004 
    201000   2777.2672      604087.04      1263.1363      603712.91      604667.17      603881.06     -2354.2907     -1403.7879     -330.10552      5744.9164      6017.0093      11761.926      141082.64      41.318815      41.318815      82.63763           16004 
    202000   2817.8296      598432.1       1269.768       598884.71      598219.33      598192.24     -1748.7563     -708.76558     -673.8645       5828.8216      5986.5865      11815.408      141332.88      41.34323       41.34323       82.686461          16004 
    203000   2805.6004      600839.71      1276.4082      601028.55      599990.69      601499.9      -1296.1574     -1648.6736      764.70756      5803.5251      5979.4474      11782.972      141252.15      41.335357      41.335357      82.670714          16004 
    204000   2762.2717      602411.2       1283.0369      602482.61      601580.84      603170.14      1446.4097      921.38566     -5011.2065      5713.8973      5999.7538      11713.651      141172.76      41.327612      41.327612      82.655223          16004 
    205000   2800.2095      593707.69      1289.6632      592775.38      594740.96      593606.74     -1757.877       3000.8602     -1096.9243      5792.3736      5924.9181      11717.292      141498.89      41.359411      41.359411      82.718823          16004 
    206000   2821.2316      602725.11      1296.2925      603231.2       602696.83      602247.31      1251.5164     -137.88289      3013.1653      5835.8589      5976.517       11812.376      141123.53      41.322807      41.322807      82.645613          16004 
    207000   2821.3528      599963.18      1302.9169      600683.84      599044.77      600160.92     -2650.5396      642.14443     -389.76994      5836.1096      5997.7675      11833.877      141261.64      41.336282      41.336282      82.672564          16004 
    208000   2792.0176      598375.1       1309.5469      598299.46      599367.81      597458.04      1552.975       4397.9121     -2690.165       5775.4282      5853.3328      11628.761      141340.12      41.343936      41.343936      82.687873          16004 
    209000   2825.8281      601885.86      1316.1859      602489.41      602613.96      600554.21     -539.58042      4.978743      -1524.3415      5845.3671      6005.6125      11850.98       141241.82      41.334349      41.334349      82.668699          16004 
    210000   2814.6587      601505.91      1322.8138      601592.57      600639.69      602285.47      88.47161       1896.8796      1516.6565      5822.2626      5959.7465      11782.009      141203.92      41.330652      41.330652      82.661304          16004 
    211000   2806.7394      594521.19      1329.4353      593819.9       594653.12      595090.56      1769.5466     -2247.8273     -225.63019      5805.881       5874.0651      11679.946      141484.71      41.358029      41.358029      82.716058          16004 
    212000   2830.1384      602278.59      1336.0623      602788.43      603037.28      601010.05      303.63505      813.66563     -505.35722      5854.283       6050.414       11904.697      141208.1       41.33106       41.33106       82.662119          16004 
    213000   2804.607       600282.9       1342.687       600820.31      601294.42      598733.96     -105.71907     -1039.026      -538.31786      5801.4701      6002.2997      11803.77       141245.58      41.334716      41.334716      82.669431          16004 
    214000   2805.3769      598711.73      1349.3171      598513.7       597921.28      599700.22     -759.37561     -1715.9816     -1481.879       5803.0628      5988.0736      11791.136      141349.5       41.344851      41.344851      82.689702          16004 
    215000   2799.7804      601671.05      1355.9525      600880.22      601906.89      602226.05      597.19771     -933.80121      64.098248      5791.4861      5939.3735      11730.86       141203.5       41.33061       41.33061       82.66122           16004 
    216000   2781.1264      599922.86      1362.5851      599531.91      599814.73      600421.93     -3468.0318      1105.9281      4517.3601      5752.8993      6023.1005      11776          141318.31      41.34181       41.34181       82.683619          16004 
    217000   2787.7473      601861.75      1369.2115      602033.34      602598.11      600953.81     -1392.3934     -1448.5536      1095.5092      5766.595       6003.2781      11769.873      141248.85      41.335035      41.335035      82.670069          16004 
    218000   2778.9754      600318.59      1375.8405      599663.52      601071.4       600220.84      733.76278      1424.4107     -891.13776      5748.4498      5975.4622      11723.912      141301.87      41.340206      41.340206      82.680413          16004 
    219000   2775.7677      598459.09      1382.4696      597690.16      598006.56      599680.55     -1830.1943     -1626.5203     -791.84208      5741.8146      6004.492       11746.307      141359.34      41.34581       41.34581       82.69162           16004 
    220000   2795.7986      606460.12      1389.0992      605148.61      608554.03      605677.71      183.36375      1233.6701     -188.56844      5783.2495      6099.3543      11882.604      141055.45      41.316161      41.316161      82.632321          16004 
    221000   2796.2395      596191.7       1395.7355      597443.38      595260.8       595870.91     -1449.4252     -909.11606      2223.1726      5784.1614      5931.399       11715.56       141397.52      41.349532      41.349532      82.699063          16004 
    222000   2796.932       600583.11      1402.3708      601144.72      601714.37      598890.25      1771.6774     -1538.5409     -631.88288      5785.594       5954.2105      11739.804      141258.29      41.335956      41.335956      82.671911          16004 
    223000   2785.8545      601696.35      1408.9996      602946.67      600710.6       601431.77      206.98369      810.14118      262.71263      5762.6795      6002.4624      11765.142      141210.48      41.331292      41.331292      82.662583          16004 
    224000   2807.0499      598900.47      1415.63        598566.93      599468.68      598665.8      -2173.6562     -735.08596      4116.4909      5806.5233      6079.5873      11886.111      141360.45      41.345918      41.345918      82.691836          16004 
    225000   2798.4143      603253.66      1422.258       603893.69      602086.29      603781.01     -897.44953      5433.0012      3392.3334      5788.6601      6025.01        11813.67       141156.73      41.326047      41.326047      82.652094          16004 
    226000   2806.2634      599332.26      1428.8855      599455.6       598560.42      599980.77      1022.5466     -1926.4041     -642.32356      5804.8965      6013.9423      11818.839      141325.78      41.342537      41.342537      82.685075          16004 
    227000   2754.5619      599048.34      1435.5235      599619.9       599014.89      598510.23      1144.7982      1607.983       477.27995      5697.9493      5957.258       11655.207      141245.02      41.334661      41.334661      82.669323          16004 
    228000   2806.9106      602268.44      1442.1594      599987.29      604486.94      602331.08     -935.33419      732.52036     -313.47596      5806.2352      6070.3228      11876.558      141161.93      41.326555      41.326555      82.65311           16004 
    229000   2800.3536      593098.99      1448.7879      591325.29      592246.78      595724.9      -1844.0228      6316.5972      2216.4769      5792.6718      5930.1714      11722.843      141459.15      41.355539      41.355539      82.711078          16004 
    230000   2793.7573      603526.96      1455.4163      603860.74      602387.57      604332.55     -3038.0775     -389.99983      622.27184      5779.027       6087.457       11866.484      141115.72      41.322045      41.322045      82.644089          16004 
    231000   2799.6461      601456         1462.0407      601784.05      602186.86      600397.09     -3812.4046     -2797.5229     -2451.5758      5791.2083      5985.7506      11776.959      141234.63      41.333648      41.333648      82.667296          16004 
    232000   2812.3812      599840.98      1468.6702      601115.32      599430.51      598977.1      -8.8314104     -354.65782     -339.0438       5817.5515      6097.2258      11914.777      141294.96      41.339532      41.339532      82.679064          16004 
    233000   2803.4817      601152.21      1475.3068      600378.28      603212.83      599865.51      968.49504     -1023.5227      1456.0291      5799.1424      5985.7104      11784.853      141201.6       41.330425      41.330425      82.66085           16004 
    234000   2821.6391      600125.38      1481.9414      599486.59      601333.54      599556         1645.1064     -3171.1409      2545.3334      5836.7018      6005.0961      11841.798      141250.68      41.335214      41.335214      82.670427          16004 
    235000   2768.6012      595614.37      1488.5683      596036.37      595415.33      595391.42      1605.6577     -1504.372      -3569.9396      5726.9903      5964.0565      11691.047      141450.73      41.354718      41.354718      82.709435          16004 
    236000   2823.6496      603543.5       1495.1969      602948.25      605085.5       602596.76      5560.0813      1358.4585     -480.55736      5840.8606      6056.0791      11896.94       141163.58      41.326716      41.326716      82.653431          16004 
    237000   2794.9197      600205.93      1501.8244      600898.7       599183.79      600535.31      2120.7307      835.34503      5208.1524      5781.4314      5986.8535      11768.285      141254.46      41.335582      41.335582      82.671164          16004 
    238000   2824.8592      598082.31      1508.4513      597202.73      598251.41      598792.78     -102.79956     -1486.4496      2190.5585      5843.3628      5989.6173      11832.98       141381.56      41.347977      41.347977      82.695953          16004 
    239000   2824.2709      603593.76      1515.0864      602416.35      603416.66      604948.26      5338.5026      1959.2008     -1955.0364      5842.1459      5972.0057      11814.152      141155.25      41.325903      41.325903      82.651806          16004 
    240000   2800.3124      599594.54      1521.721       598875.35      600995.68      598912.59     -1104.7963     -2172.856      -1681.6334      5792.5866      6021.681       11814.268      141284.96      41.338557      41.338557      82.677113          16004 
    241000   2802.6371      602380.32      1528.348       602192.62      603241.05      601707.3       3734.1992     -2947.2894      4174.8659      5797.3952      5968.8708      11766.266      141205.54      41.33081       41.33081       82.661619          16004 
    242000   2780.6164      600929.98      1534.9769      602338.84      599185.38      601265.7      -1206.3228      3717.2457     -1011.8056      5751.8444      5980.0271      11731.871      141243.6       41.334523      41.334523      82.669046          16004 
    243000   2795.8761      597143         1541.605       598103.63      598398.36      594927.02      1990.222      -925.78959      136.76057      5783.4098      5990.193       11773.603      141383.04      41.348121      41.348121      82.696241          16004 
    244000   2788.9271      604671.77      1548.2335      603992.42      603013.23      607009.65     -2386.2014     -2331.9185     -978.10419      5769.0354      6053.2753      11822.311      141117.4       41.322208      41.322208      82.644417          16004 
    245000   2789.1829      598545.9       1554.8657      598184.6       598502.97      598950.12     -2601.5647     -945.11207     -938.32254      5769.5646      6013.7541      11783.319      141332.19      41.343163      41.343163      82.686326          16004 
    246000   2799.6746      597343.93      1561.5014      597095.93      597619.11      597316.74      14.971038      590.73986     -2319.0493      5791.2672      5916.6129      11707.88       141355.51      41.345437      41.345437      82.690873          16004 
    247000   2781.8848      603679.32      1568.1276      604377.59      603187.72      603472.63      2051.5355      1183.6689     -1904.3438      5754.4681      6083.6947      11838.163      141167.05      41.327054      41.327054      82.654108          16004 
    248000   2792.8917      596741.94      1574.7573      597709.21      596355.64      596160.98     -1320.8535      1240.9131      3710.7933      5777.2364      5983.5344      11760.771      141366.74      41.346532      41.346532      82.693064          16004 
    249000   2832.0757      599245.23      1581.3859      599582.7       601458.35      596694.64     -1681.3307      194.16449     -292.20804      5858.2906      5939.0661      11797.357      141339.83      41.343908      41.343908      82.687816          16004 
    250000   2800.8857      604742.05      1588.0143      604364.71      605083.44      604778        -689.79363      311.61328      228.67842      5793.7724      6122.0206      11915.793      141116.5       41.322121      41.322121      82.644241          16004 
    251000   2805.3653      597053.2       1594.6465      595929.14      596386.94      598843.51      1584.5035      788.28066     -2279.5489      5803.0387      5933.2053      11736.244      141392.04      41.348998      41.348998      82.697996          16004 
    252000   2763.8835      595406.98      1601.283       594202.96      595232.1       596785.86      2412.6684      2001.0654      3288.7611      5717.2314      5991.493       11708.724      141417.39      41.351469      41.351469      82.702938          16004 
    253000   2794.2364      603195.13      1607.9078      601377.71      604354.05      603853.63      1689.9671      445.48742      2454.8001      5780.018       6063.9895      11844.007      141183.69      41.328677      41.328677      82.657355          16004 
    254000   2759.9307      597701.74      1614.531       596263.64      600093.13      596748.46      2278.3483      768.59376      66.166674      5709.0548      5949.0512      11658.106      141350.26      41.344925      41.344925      82.68985           16004 
    255000   2778.5175      599354         1621.1589      599510.24      599965.92      598585.83     -354.28486     -1138.4157      1561.7218      5747.5026      6034.968       11782.471      141296.16      41.33965       41.33965       82.679299          16004 
    256000   2816.8031      606226.01      1627.7851      605990.35      606515.62      606172.06      1707.7412     -4349.2412      3852.8987      5826.6983      6021.3186      11848.017      141070.67      41.317647      41.317647      82.635293          16004 
    257000   2813.0058      590552.41      1634.4187      592173.76      589122.61      590360.85     -411.83774      4032.6146     -1111.7438      5818.8434      5865.4711      11684.314      141637.62      41.372923      41.372923      82.745847          16004 
    258000   2837.8458      603841.31      1641.053       605249.57      602705.55      603568.8       3145.3422      1458.4232      1507.254       5870.2263      6059.128       11929.354      141190.76      41.329368      41.329368      82.658735          16004 
    259000   2794.2454      599651.83      1647.6751      600632         601347.35      596976.13      47.910377      516.44599      964.46806      5780.0366      6010.8919      11790.928      141275.24      41.337609      41.337609      82.675219          16004 
    260000   2776.2767      596546.37      1654.2934      596712.21      595801.93      597124.98      2432.5416     -2490.1945     -1034.6556      5742.8675      5948.5681      11691.436      141411.2       41.350866      41.350866      82.701732          16004 
    261000   2789.4598      604046.79      1660.9088      603634.6       605544.61      602961.16     -4781.0109     -908.58576     -2397.5343      5770.1373      6063.9722      11834.11       141123.22      41.322776      41.322776      82.645552          16004 
    262000   2782.2518      598953.54      1667.5237      598084.82      599175.85      599599.94      2874.116       1215.6434      2153.0436      5755.2273      5973.0153      11728.243      141262.18      41.336335      41.336335      82.67267           16004 
    263000   2786.1604      597305.56      1674.1395      595842.98      597991.14      598082.57      1472.8373     -998.61778      2417.7573      5763.3123      6000.6498      11763.962      141369         41.346752      41.346752      82.693504          16004 
    264000   2771.5755      602539.7       1680.7642      603214.59      602317.33      602087.2       2896.0907      738.47735      2632.0772      5733.1427      5992.5975      11725.74       141196.46      41.329924      41.329924      82.659847          16004 
    265000   2827.7694      599451.11      1687.3829      600012.08      600104.06      598237.18     -1321.9959      1357.071      -389.90094      5849.3827      5992.5093      11841.892      141248.9       41.33504       41.33504       82.67008           16004 
    266000   2782.5987      597003.02      1693.9954      595008.67      597462.54      598537.85     -1430.8907      1282.7116     -299.83975      5755.9448      5909.4898      11665.435      141347.65      41.34467       41.34467       82.68934           16004 
    267000   2819.866       599380.15      1700.6103      598148.46      600186.2       599805.8      -619.80124      192.15151      1056.9028      5833.034       5962.2517      11795.286      141291.77      41.339222      41.339222      82.678443          16004 
    268000   2800.7969      606112.23      1707.222       607281.71      606371.73      604683.25     -469.1479      -2708.6188     -53.876135      5793.5888      6076.233       11869.822      141070.48      41.317628      41.317628      82.635256          16004 
    269000   2769.7141      596281.4       1713.8379      595550.18      596706.78      596587.23     -1210.7964      468.34655     -820.9401       5729.2924      5938.986       11668.278      141385.19      41.34833       41.34833       82.696661          16004 
    270000   2794.903       601044.37      1720.4603      599892.23      603107.39      600133.48      723.85408     -324.16205     -1428.0956      5781.3968      6029.4418      11810.839      141260.79      41.3362        41.3362        82.6724            16004 
    271000   2790.3735      603172.52      1727.0773      602898.07      603177.93      603441.56      644.16706     -201.79302      1400.3162      5772.0275      5993.2539      11765.281      141171         41.327439      41.327439      82.654878          16004 
    272000   2813.2439      595668.72      1733.6901      596491.39      596587.6       593927.16      2576.474       2647.8936      1710.587       5819.3359      5996.0696      11815.406      141497.34      41.35926       41.35926       82.718519          16004 
    273000   2807.954       603785.11      1740.2981      605268.59      603556.03      602530.72     -3154.4813      3005.7405      2696.2558      5808.3935      5995.1826      11803.576      141154.03      41.325783      41.325783      82.651566          16004 
    274000   2806.6316      598503.03      1746.898       598850.23      597531.06      599127.8      -2086.4792     -1702.4686      2663.5249      5805.658       5960.6742      11766.332      141318.13      41.341792      41.341792      82.683583          16004 
    275000   2773.4805      598473.84      1753.4981      597123.82      600125.44      598172.26     -628.57643     -866.02988     -989.98043      5737.0833      5993.8649      11730.948      141331.1       41.343056      41.343056      82.686113          16004 
    276000   2773.3679      603433.32      1760.0954      602694.29      604525.94      603079.74      1272.4536     -2843.0939     -386.37909      5736.8504      6068.9007      11805.751      141163.35      41.326692      41.326692      82.653385          16004 
    277000   2792.7811      597762.6       1766.6922      597559.52      599279.32      596448.96      3442.0826      1096.5339     -653.32031      5777.0076      5982.586       11759.594      141357.63      41.345644      41.345644      82.691287          16004 
    278000   2788.8859      599775.62      1773.2917      598649.29      600396.61      600280.96     -509.82436      4193.5265     -20.497649      5768.9502      6006.8686      11775.819      141333.85      41.343324      41.343324      82.686649          16004 
    279000   2812.5116      600520.99      1779.885       601212.24      600138.41      600212.32     -170.18342     -3191.4668      386.09057      5817.8212      5995.6418      11813.463      141308.53      41.340856      41.340856      82.681712          16004 
    280000   2798.6797      599528.49      1786.4811      599406.67      599127.85      600050.94      542.08954     -178.53595     -2207.2656      5789.2091      5987.2046      11776.414      141329.08      41.342859      41.342859      82.685719          16004 
    281000   2777.4093      595455.02      1793.0862      597389.72      593086.83      595888.52      4745.4938      224.57667      1468.6494      5745.2103      5889.3778      11634.588      141416.83      41.351414      41.351414      82.702829          16004 
    282000   2799.7295      604261.68      1799.6842      603759.87      606767.76      602257.39      2830.7183     -118.87361      377.86692      5791.3808      6073.8973      11865.278      141107.11      41.321204      41.321204      82.642408          16004 
    283000   2768.3397      598237.42      1806.2835      598841.79      597855.32      598015.15      1487.6625     -566.97782     -5434.079       5726.4495      5946.9285      11673.378      141361.48      41.346019      41.346019      82.692038          16004 
    284000   2816.895       602483.19      1812.8835      603129.2       603034.83      601285.53     -1816.3194      3890.8316     -1705.2049      5826.8884      5991.3         11818.188      141212.05      41.331444      41.331444      82.662889          16004 
    285000   2778.7068      598521.48      1819.4866      598716.71      598291.94      598555.8      -611.49546     -625.63552     -855.56672      5747.8943      5964.3819      11712.276      141315.44      41.34153       41.34153       82.683059          16004 
    286000   2792.6174      596487.7       1826.0898      597018.49      597968.51      594476.09     -4005.9408     -195.58632     -1800.1057      5776.669       5972.3945      11749.063      141376.11      41.347445      41.347445      82.69489           16004 
[...]
   3930000   2771.9393      601382.8       6969.2419      602261.49      599774.21      602112.71      1231.7745      2172.3757     -736.08699      5733.8953      6878.3359      12612.231      141014.28      41.335584      41.335584      82.530584          16004 
   3931000   2800.0241      596510.71      6976.7208      595895.47      593768.54      599868.13      1726.7231     -1264.1737      3638.2572      5791.9902      6761.9041      12553.894      141167.16      41.350517      41.350517      82.5604            16004 
   3932000   2785.3709      603126.33      6984.1952      603321.76      602254.33      603802.9       208.10153      175.35079      1941.9317      5761.6793      6881.1171      12642.796      140929.02      41.327252      41.327252      82.513948          16004 
   3933000   2764.3764      598024.95      6991.6756      597474.16      594784.6       601816.09     -391.96254      2634.1096     -4906.1911      5718.2511      6844.9879      12563.239      141140.88      41.347951      41.347951      82.555276          16004 
   3934000   2767.4428      600244.81      6999.1563      599380.2       599292.61      602061.63     -829.22727     -1032.9626      1627.101       5724.5941      6866.515       12591.109      141064.72      41.340512      41.340512      82.540423          16004 
   3935000   2790.419       602760.54      7006.6315      601510.2       600512.67      606258.76      3888.7008      1723.7982     -3440.2326      5772.1215      6849.6604      12621.782      140982.24      41.332453      41.332453      82.524333          16004 
   3936000   2774.5475      597791.89      7014.1087      598589.61      595289.57      599496.5       2772.3378     -1671.608       1358.7658      5739.2904      6828.6727      12567.963      141125.52      41.346451      41.346451      82.552281          16004 
   3937000   2802.7351      601094.74      7021.5826      599023.34      600443.68      603817.18      1481.8041      220.03534     -1659.3615      5797.598       6812.6841      12610.282      141011.69      41.335332      41.335332      82.53008           16004 
   3938000   2801.9508      602731.84      7029.0625      602898.8       601953.13      603343.59      588.21673      1094.5255      586.49723      5795.9757      6855.0073      12650.983      140900.87      41.3245        41.3245        82.508453          16004 
   3939000   2780.513       591691.9       7036.5368      592454.85      589034.31      593586.54     -1041.8407      2716.245       2543.2338      5751.6305      6727.1468      12478.777      141361.65      41.369498      41.369498      82.598297          16004 
   3940000   2749.6777      602721.27      7044.0151      603687.33      601040.83      603435.64      826.6969       3650.2191      4188.204       5687.8462      6930.466       12618.312      140986.47      41.332867      41.332867      82.525159          16004 
   3941000   2775.2304      599233.91      7051.4929      598852.7       599199.24      599649.8      -1273.0655     -2072.8746      3683.6704      5740.7031      6852.0933      12592.796      141053.99      41.339465      41.339465      82.538332          16004 
   3942000   2767.3997      596373.22      7058.9793      596812.03      594049.49      598258.15      1605.8551     -1956.0421     -1794.5611      5724.5049      6826.7232      12551.228      141164.42      41.35025       41.35025       82.559865          16004 
   3943000   2788.5659      602762.49      7066.4535      601110.38      601940.98      605236.12      544.62288      2669.4116     -4944.1439      5768.2882      6849.0134      12617.302      140987.04      41.332923      41.332923      82.525271          16004 
   3944000   2774.725       599442.8       7073.9282      597781.62      596666.99      603879.8       299.3103      -2293.5701      2414.4917      5739.6577      6834.1615      12573.819      141103.14      41.344265      41.344265      82.547916          16004 
   3945000   2804.2952      601254.77      7081.4081      599721.03      601242.32      602800.94     -2715.8702      926.36028     -1816.9224      5800.8251      6809.8563      12610.681      141003.45      41.334526      41.334526      82.528472          16004 
   3946000   2780.3058      599784.39      7088.8929      598737.8       599697.87      600917.51      388.41923     -543.47566      2622.8234      5751.2019      6840.4359      12591.638      141053.99      41.339465      41.339465      82.538332          16004 
   3947000   2755.8151      595390.56      7096.3755      594226.81      595264.85      596680.01     -1966.9807     -516.24184      5773.7182      5700.5417      6845.0231      12545.565      141175.16      41.351298      41.351298      82.561959          16004 
   3948000   2783.3112      603565.27      7103.8494      602268.28      602834.58      605592.93     -1281.0618      2154.2033      3519.6312      5757.4187      6862.699       12620.118      140975.28      41.331774      41.331774      82.522976          16004 
   3949000   2751.552       599110.73      7111.3242      599661.84      598000.84      599669.51      1056.4959      287.75779      2438.688       5691.7231      6874.0413      12565.764      141118.82      41.345797      41.345797      82.550975          16004 
   3950000   2782.7302      602269.23      7118.8144      601358.25      601718.52      603730.93      1636.4241      233.25788      2076.3389      5756.2169      6857.203       12613.42       140988.25      41.333041      41.333041      82.525506          16004 
   3951000   2776.8245      597795.95      7126.2944      597006.85      595924.88      600456.13     -520.11719     -2033.5692     -1042.1371      5744.0005      6830.8268      12574.827      141091.14      41.343094      41.343094      82.545577          16004 
   3952000   2780.6372      601184.78      7133.7674      598873.57      599757.33      604923.44     -3735.0899     -1085.2458     -1311.0456      5751.8874      6863.2685      12615.156      140982.09      41.332439      41.332439      82.524305          16004 
   3953000   2791.9009      601881.91      7141.2461      602765.19      600909.14      601971.4       3975.4756      4241.1504      3418.1083      5775.1869      6854.26        12629.447      140942.79      41.328598      41.328598      82.516636          16004 
   3954000   2781.0973      594965.52      7148.7262      595361.35      593254.74      596280.47     -2278.8538      2026.4011     -1197.5671      5752.8391      6779.3075      12532.147      141202.13      41.353931      41.353931      82.567216          16004 
   3955000   2806.7704      604215.02      7156.1978      602902.9       601785.89      607956.26     -2708.5472      1174.2893     -470.59516      5805.9451      6845.4901      12651.435      140881.74      41.32263       41.32263       82.504719          16004 
   3956000   2759.237       599152.19      7163.6754      596986.7       599350.72      601119.15     -461.50199     -306.24535      1909.3126      5707.6199      6873.8747      12581.495      141064.92      41.340532      41.340532      82.540463          16004 
   3957000   2773.4848      601288.89      7171.1457      600337.6       597543.23      605985.85      3572.2832     -1631.1572     -956.0533       5737.0922      6846.2624      12583.355      141059.73      41.340025      41.340025      82.539451          16004 
   3958000   2776.101       600772.47      7178.6245      600837.41      599525         601955.02      2472.3977     -3256.8038     -581.56832      5742.504       6851.4489      12593.953      141031.22      41.33724       41.33724       82.533889          16004 
   3959000   2748.3157      598836.28      7186.1001      597351.02      598541.58      600616.22      675.62689     -627.67884      3547.0718      5685.0287      6884.2455      12569.274      141094.16      41.343388      41.343388      82.546165          16004 
   3960000   2762.6417      603213.02      7193.5781      601002.92      603075.35      605560.78     -3693.5592     -352.23222      1525.3252      5714.6628      6913.1099      12627.773      140938.03      41.328133      41.328133      82.515707          16004 
   3961000   2773.8924      596766.34      7201.0644      596428.66      594032.95      599837.4       353.57303      186.53384      1357.4235      5737.9355      6781.1372      12519.073      141227.49      41.356407      41.356407      82.572158          16004 
   3962000   2788.09        601267.35      7208.5434      599678.67      599621.96      604501.41      3913.4096      1540.649       1006.38        5767.3038      6833.4681      12600.772      141008.1       41.334981      41.334981      82.52938           16004 
   3963000   2785.3373      603338.24      7216.0205      603244.87      601825.71      604944.13     -196.94873      2596.2476     -1557.6884      5761.6097      6861.41        12623.02       140947.79      41.329087      41.329087      82.517611          16004 
   3964000   2774.4876      596318.37      7223.4986      594859.3       595362.77      598733.03     -29.569612      219.55146      1491.5975      5739.1666      6799.1182      12538.285      141172.35      41.351024      41.351024      82.561412          16004 
   3965000   2778.1786      602279.69      7230.9774      600645.23      601930.84      604263        -1926.4899      1603.4193      829.26819      5746.8016      6877.7241      12624.526      140940.99      41.328422      41.328422      82.516284          16004 
   3966000   2780.1247      599176.35      7238.4702      598971.22      597547.27      601010.57      559.85261      2326.472       3131.3052      5750.8273      6815.8621      12566.689      141094.88      41.343459      41.343459      82.546306          16004 
   3967000   2788.339       600029.9       7245.9498      598712.52      597702.36      603674.83     -1421.4265     -219.71883      3872.6238      5767.819       6827.9341      12595.753      141015.78      41.335732      41.335732      82.530878          16004 
   3968000   2808.7199      605809.45      7253.4338      606206.31      603817.61      607404.43     -330.75983      1410.8562      2916.6686      5809.9777      6858.7891      12668.767      140820.53      41.316644      41.316644      82.492769          16004 
   3969000   2755.9392      593628.54      7260.9173      593577.73      590147.35      597160.55      3722.4146      374.83117      936.39131      5700.7982      6794.6264      12495.425      141282.7       41.361795      41.361795      82.582917          16004 
   3970000   2773.7984      604079.73      7268.3939      601986.53      603796.17      606456.5      -1731.0823      468.85905      3851.1331      5737.7409      6889.2704      12627.011      140929.12      41.327262      41.327262      82.513969          16004 
   3971000   2785.3594      599506.42      7275.874       599797.81      599694.61      599026.85     -953.59875      1508.3091      1240.9667      5761.6554      6826.155       12587.81       141032.52      41.337367      41.337367      82.534143          16004 
   3972000   2787.7504      601961.74      7283.3543      600495.93      602234.46      603154.84      2242.5676     -407.63935      2454.7653      5766.6013      6847.0699      12613.671      140962.7       41.330544      41.330544      82.520521          16004 
   3973000   2780.4017      595369.03      7290.8381      595069.75      594429.99      596607.35     -2412.3247     -1624.4431     -1409.8331      5751.4002      6768.5774      12519.978      141210.39      41.354737      41.354737      82.568825          16004 
   3974000   2768.4186      601780.26      7298.3193      599369.14      600853.11      605118.54      1407.2626      335.98505      2806.2364      5726.6126      6853.0127      12579.625      141050.61      41.339134      41.339134      82.537672          16004 
   3975000   2759.368       602141.55      7305.8059      600866.26      601108.91      604449.49      831.95437      186.4062      -3151.4341      5707.891       6885.1066      12592.998      141014.39      41.335595      41.335595      82.530606          16004 
   3976000   2763.7436      597419.26      7313.2944      595586.91      596083.53      600587.33     -3692.5026      3233.6849     -2498.0725      5716.942       6812.2649      12529.207      141184.85      41.352244      41.352244      82.563847          16004 
   3977000   2755.569       607895.42      7320.7833      606748.63      606381.24      610556.38      742.57975     -2383.3862     -93.380496      5700.0325      6961.3234      12661.356      140832.14      41.31778       41.31778       82.495036          16004 
   3978000   2788.5913      596888.2       7328.2635      596394.78      596371.16      597898.65      5549.7674      2052.6373      1231.9317      5768.3408      6762.6212      12530.962      141180.29      41.351799      41.351799      82.562958          16004 
   3979000   2784.5444      599457.28      7335.7468      596975.36      599091.71      602304.77     -2080.3075     -1530.4763      1552.1008      5759.9697      6786.3997      12546.369      141138.24      41.347693      41.347693      82.554761          16004 
   3980000   2767.819       601736.35      7343.2272      600913.15      599429.17      604866.72      4377.9719     -1279.0763      3443.3722      5725.3722      6875.4567      12600.829      140991.75      41.333383      41.333383      82.52619           16004 
   3981000   2759.5571      597844.34      7350.7111      596501.66      596722.53      600308.83     -477.47796     -314.13262      4559.7123      5708.2821      6846.8797      12555.162      141112.85      41.345214      41.345214      82.549811          16004 
   3982000   2779.675       599123.74      7358.1969      598730.03      596842.31      601798.88     -1198.9617      2764.6382     -759.42666      5749.897       6825.0939      12574.991      141059.08      41.339961      41.339961      82.539323          16004 
   3983000   2761.2536      600736.2       7365.6795      600189.79      599301.1       602717.71      1302.2026      911.956        1866.6896      5711.7915      6864.2815      12576.073      141056.43      41.339702      41.339702      82.538806          16004 
   3984000   2782.9884      597824.54      7373.166       598006.21      596880.47      598586.94      4512.0831      2554.3682      2623.5732      5756.751       6789.0586      12545.81       141136.13      41.347487      41.347487      82.554349          16004 
   3985000   2778.5595      600563.23      7380.6446      601179.21      597722.21      602788.27      2562.1109     -2176.3174      3503.0316      5747.5895      6844.7155      12592.305      141010.98      41.335263      41.335263      82.529942          16004 
   3986000   2780.6298      599555.47      7388.1278      599519.61      598334.17      600812.64     -1103.402      -1502.0465     -3138.7778      5751.8721      6821.3344      12573.207      141061.38      41.340186      41.340186      82.539773          16004 
   3987000   2778.5941      599931.81      7395.6188      598900.81      598647.92      602246.7       1003.4464     -463.7691       3925.7051      5747.6611      6817.4726      12565.134      141081.82      41.342183      41.342183      82.543759          16004 
   3988000   2784.4019      605372.21      7403.1071      604286.72      605443.13      606386.77     -1926.476      -3567.9582      996.12174      5759.6749      6886.7936      12646.468      140864.3       41.320925      41.320925      82.501314          16004 
   3989000   2770.2846      594503.23      7410.5914      594244.87      592568.77      596696.04      1677.0543     -1686.419       2544.5092      5730.4725      6763.8754      12494.348      141269.14      41.360472      41.360472      82.580274          16004 
   3990000   2790.8172      600878.78      7418.0722      598036.85      600389.84      604209.65      264.56243     -2334.8066      393.4112       5772.9451      6812.8144      12585.76       141023.29      41.336465      41.336465      82.532342          16004 
   3991000   2784.292       599528.9       7425.5499      601378.84      596254.9       600952.95     -346.10093     -223.61651      345.94009      5759.4475      6815.0911      12574.539      141052.95      41.339363      41.339363      82.538129          16004 
   3992000   2759.211       597661.47      7433.035       596351.01      596083.29      600550.13     -2632.9234      1013.9379      994.95105      5707.5661      6813.8526      12521.419      141194.93      41.353228      41.353228      82.565812          16004 
   3993000   2779.6159      604351.57      7440.5135      605249         602450.52      605355.2       200.29312     -1063.4128     -2747.1038      5749.7748      6881.0782      12630.853      140902.39      41.324649      41.324649      82.50875           16004 
   3994000   2778.4756      598797.69      7447.9938      598075.36      598471.04      599846.67      333.4761       162.82982      3046.0143      5747.4159      6811.5375      12558.953      141094.06      41.343378      41.343378      82.546146          16004 
   3995000   2781.6784      595734.67      7455.4706      595186.84      595128.88      596888.3       880.99951     -1264.3988      977.3284       5754.0412      6771.3773      12525.419      141182.51      41.352016      41.352016      82.563391          16004 
   3996000   2782.5788      604339.39      7462.9488      601934.77      603730.1       607353.31     -1216.4427      2019.2766      1628.3212      5755.9036      6887.4556      12643.359      140867.36      41.321225      41.321225      82.501913          16004 
   3997000   2768.9576      596474.81      7470.4327      595803.16      596930.82      596690.44      435.68614      1092.8214      3019.1619      5727.7275      6785.8779      12513.605      141213.4       41.355031      41.355031      82.569412          16004 
   3998000   2768.1376      603017.2       7477.9134      602480.14      602145.64      604425.8       1730.7034     -1980.6815      4315.8617      5726.0314      6871.0185      12597.05       140989.23      41.333137      41.333137      82.525698          16004 
   3999000   2785.205       595978.35      7485.3948      594764.79      594807.76      598362.51      932.28125     -1578.9429      4511.0776      5761.3361      6759.1653      12520.501      141192.4       41.352981      41.352981      82.565319          16004 
   4000000   2780.8545      599051.38      7492.8764      597434.46      596948.99      602770.69     -1777.5009      2353.9587      4545.4661      5752.3368      6799.3137      12551.651      141108.18      41.344758      41.344758      82.548901          16004 
Loop time of 7492.88 on 8 procs for 1000000 steps with 16004 atoms

Performance: 5.765 ns/day, 4.163 hours/ns, 133.460 timesteps/s
60.1% CPU use with 1 MPI tasks x 8 OpenMP threads

MPI task timing breakdown:
Section |  min time  |  avg time  |  max time  |%varavg| %total
---------------------------------------------------------------
Pair    | 7213.8     | 7213.8     | 7213.8     |   0.0 | 96.28
Neigh   | 7.4005     | 7.4005     | 7.4005     |   0.0 |  0.10
Comm    | 34.772     | 34.772     | 34.772     |   0.0 |  0.46
Output  | 1.2653     | 1.2653     | 1.2653     |   0.0 |  0.02
Modify  | 206.79     | 206.79     | 206.79     |   0.0 |  2.76
Other   |            | 28.83      |            |       |  0.38

Nlocal:          16004 ave       16004 max       16004 min
Histogram: 1 0 0 0 0 0 0 0 0 0
Nghost:          13848 ave       13848 max       13848 min
Histogram: 1 0 0 0 0 0 0 0 0 0
Neighs:              0 ave           0 max           0 min
Histogram: 1 0 0 0 0 0 0 0 0 0
FullNghs:  1.63574e+06 ave 1.63574e+06 max 1.63574e+06 min
Histogram: 1 0 0 0 0 0 0 0 0 0

Total # of neighbors = 1635742
Ave neighs/atom = 102.20832
Neighbor list builds = 19623
Dangerous builds = 0
Total wall time: 7:40:50
