
atom_style atomic
units metal
boundary p p p
#atom_modify sort 0 0.0
newton on

read_data data.lammps
Reading data file ...
  orthogonal box = (0 0 0) to (43.790145 43.790145 87.58029)
  1 by 1 by 1 MPI processor grid
  reading atoms ...
  16004 atoms
  read_data CPU = 0.031 seconds
# replicate 10 10 20

### interactions

pair_style flare
pair_coeff * * lmp.flare
Reading potential file lmp.flare with DATE: Thu

# compute unc all flare/std/atom L_inv_lmp.flare sparse_desc_lmp.flare
# compute MaxUnc all reduce max c_unc

mass 1 12.011000
mass 2 28.085000

thermo_style custom step temp press cpu pxx pyy pzz pxy pxz pyz ke pe etotal vol lx ly lz atoms    #c_MaxUnc
thermo 1000
timestep 0.0005
restart 100000 restart_*.dat

#################### Equilibrate at P and T_es ##############################
velocity all create $T 41928459 rot yes dist gaussian
velocity all create 3800 41928459 rot yes dist gaussian
fix mom all momentum 1000 linear 1 1 1 angular

fix 1 all npt temp $T $T $(100.0*dt) iso $P $P $(1000.0*dt)
fix 1 all npt temp 3800 $T $(100.0*dt) iso $P $P $(1000.0*dt)
fix 1 all npt temp 3800 3800 $(100.0*dt) iso $P $P $(1000.0*dt)
fix 1 all npt temp 3800 3800 0.050000000000000002776 iso $P $P $(1000.0*dt)
fix 1 all npt temp 3800 3800 0.050000000000000002776 iso 900000 $P $(1000.0*dt)
fix 1 all npt temp 3800 3800 0.050000000000000002776 iso 900000 900000 $(1000.0*dt)
fix 1 all npt temp 3800 3800 0.050000000000000002776 iso 900000 900000 0.5
dump 1 all custom 1000 1equil.bin id type x y z vx vy vz
run   10000 # report performance
Neighbor list info ...
  update every 1 steps, delay 10 steps, check yes
  max neighbors/atom: 2000, page size: 100000
  master list distance cutoff = 6
  ghost atom cutoff = 6
  binsize = 6, bins = 8 8 15
  1 neighbor lists, perpetual/occasional/extra = 1 0 0
  (1) pair flare/kk, perpetual
      attributes: full, newton on, kokkos_device
      pair build: full/bin/kk/device
      stencil: full/bin/3d
      bin: kk/device
Per MPI rank memory allocation (min/avg/max) = 15.9 | 15.9 | 15.9 Mbytes
   Step          Temp          Press           CPU            Pxx            Pyy            Pzz            Pxy            Pxz            Pyz           KinEng         PotEng         TotEng         Volume           Lx             Ly             Lz          Atoms   
         0   3800           70189.119      0              69751.783      70235.542      70580.031     -874.11562      46.624223     -590.6524       7860.4904     -4000.2205      3860.2699      167941.93      43.790145      43.790145      87.58029           16004 
      1000   3925.3965      901611.63      7.059139       902123.24      902581.85      900129.81     -1030.8205     -1773.9492      1182.1817      8119.8792      11909.543      20029.422      133120.57      40.526434      40.526434      81.052867          16004 
      2000   3780.8689      898738.83      14.179488      897904.62      900123.08      898188.8      -3143.0505     -3205.3121      683.63445      7820.9168      11625.224      19446.141      132914.69      40.505531      40.505531      81.011062          16004 
      3000   3821.7447      900854.88      21.299173      901798.41      898562.11      902204.11     -2587.5943     -864.73578      3176.7389      7905.4704      11918.555      19824.026      132873.21      40.501317      40.501317      81.002634          16004 
      4000   3775.5031      898811.61      28.421268      899135.77      899309.85      897989.23      3832.8183     -5491.7738      5816.2903      7809.8173      11845.042      19654.859      132833.73      40.497305      40.497305      80.994611          16004 
      5000   3810.1491      901210.27      35.544118      899126.35      901475.01      903029.45     -4412.6201      796.88289     -4337.3931      7881.4843      11938.645      19820.129      132783.92      40.492243      40.492243      80.984485          16004 
      6000   3821.0936      900929.37      42.667071      903566.18      901031.1       898190.83     -1372.8814     -895.37109      2596.2848      7904.1236      11880.16       19784.284      132782.92      40.492141      40.492141      80.984282          16004 
      7000   3770.6433      901113.69      49.79688       901014.43      900886.9       901439.73      1039.5786      4190.9833      1729.7182      7799.7647      11930.425      19730.19       132807.84      40.494673      40.494673      80.989347          16004 
      8000   3814.4224      902366.1       56.920107      903239.48      904275.54      899583.28      2533.8987     -372.17479      5089.0849      7890.3239      11950.879      19841.203      132759.05      40.489714      40.489714      80.979429          16004 
      9000   3787.2133      897823.09      64.043361      899485.04      898804.04      895180.18     -1216.1662      2596.8244      2531.169       7834.0405      11851.529      19685.57       132826.77      40.496597      40.496597      80.993195          16004 
     10000   3809.9106      899087.37      71.16658       899429.85      898835.04      898997.21     -3812.1764     -960.56773      3251.1893      7880.9909      11948.266      19829.257      132822.72      40.496187      40.496187      80.992373          16004 
Loop time of 71.1666 on 8 procs for 10000 steps with 16004 atoms

Performance: 6.070 ns/day, 3.954 hours/ns, 140.515 timesteps/s
61.3% CPU use with 1 MPI tasks x 8 OpenMP threads

MPI task timing breakdown:
Section |  min time  |  avg time  |  max time  |%varavg| %total
---------------------------------------------------------------
Pair    | 68.164     | 68.164     | 68.164     |   0.0 | 95.78
Neigh   | 0.10711    | 0.10711    | 0.10711    |   0.0 |  0.15
Comm    | 0.3505     | 0.3505     | 0.3505     |   0.0 |  0.49
Output  | 0.013018   | 0.013018   | 0.013018   |   0.0 |  0.02
Modify  | 2.2715     | 2.2715     | 2.2715     |   0.0 |  3.19
Other   |            | 0.2602     |            |       |  0.37

Nlocal:          16004 ave       16004 max       16004 min
Histogram: 1 0 0 0 0 0 0 0 0 0
Nghost:          14655 ave       14655 max       14655 min
Histogram: 1 0 0 0 0 0 0 0 0 0
Neighs:              0 ave           0 max           0 min
Histogram: 1 0 0 0 0 0 0 0 0 0
FullNghs:  1.75507e+06 ave 1.75507e+06 max 1.75507e+06 min
Histogram: 1 0 0 0 0 0 0 0 0 0

Total # of neighbors = 1755072
Ave neighs/atom = 109.66458
Neighbor list builds = 265
Dangerous builds = 0
run  990000
Per MPI rank memory allocation (min/avg/max) = 16.45 | 16.45 | 16.45 Mbytes
   Step          Temp          Press           CPU            Pxx            Pyy            Pzz            Pxy            Pxz            Pyz           KinEng         PotEng         TotEng         Volume           Lx             Ly             Lz          Atoms   
     10000   3809.9106      899087.37      0              899429.85      898835.04      898997.21     -3812.1764     -960.56773      3251.1893      7880.9909      11948.266      19829.257      132822.72      40.496187      40.496187      80.992373          16004 
     11000   3807.0928      902932         7.1250433      903018.1       904754.59      901023.3       2894.0097     -2147.4735     -3387.4874      7875.1623      11847.694      19722.856      132727.2       40.486476      40.486476      80.972953          16004 
     12000   3836.1303      893379.2       14.247114      892779.02      895875.95      891482.64      3502.1848     -3950.6909     -3515.1317      7935.2277      11802.21       19737.438      132960.39      40.510173      40.510173      81.020345          16004 
     13000   3762.1407      904355.61      21.370962      904283.73      904924.08      903859.01     -2860.7515      1792.5632     -2771.4014      7782.1766      11950.834      19733.011      132637.64      40.477368      40.477368      80.954737          16004 
     14000   3793.2752      897028.72      28.497366      896857.61      898151.93      896076.63      179.84998     -3402.3264      1211.3398      7846.5797      11888.065      19734.645      132838.37      40.497777      40.497777      80.995554          16004 
     15000   3760.7924      899175.79      35.621744      894907.1       900792.72      901827.56      980.24993     -2204.3052     -8208.9862      7779.3875      11878.823      19658.21       132778.4       40.491681      40.491681      80.983363          16004 
     16000   3791.2232      899615.51      42.746796      901276.33      899467.09      898103.1      -3121.7919     -2226.9584      2437.5097      7842.3351      11952.994      19795.329      132797.03      40.493575      40.493575      80.98715           16004 
     17000   3803.5386      893546.38      49.870638      894344.6       892241.66      894052.88     -2502.0766     -4970.2462      60.073582      7867.8102      11891.717      19759.527      132942.7       40.508376      40.508376      81.016753          16004 
     18000   3795.1649      908831.75      56.997126      908969.85      909089.34      908436.07     -2463.0313     -1770.033      -2984.5339      7850.4887      12024.546      19875.035      132518.99      40.465295      40.465295      80.93059           16004 
     19000   3781.0021      889578.67      64.121589      892697.75      888293.55      887744.72      3630.0134     -2911.4967     -1551.2402      7821.1924      11769.668      19590.86       133097.01      40.524043      40.524043      81.048086          16004 
     20000   3799.0282      903641.83      71.249218      905904.51      901109.4       903911.59     -2135.7865     -2972.2075      2241.4716      7858.4802      11922.261      19780.742      132685.11      40.482196      40.482196      80.964392          16004 
     21000   3770.4551      901188.44      78.37697       900996.65      899018.53      903550.15      3558.5296     -690.66623      1160.7143      7799.3753      11920.146      19719.521      132675.68      40.481237      40.481237      80.962474          16004 
     22000   3783.8701      898190.75      85.506999      899371.31      898646.12      896554.82     -939.49872      4523.6723     -943.21047      7827.1249      11940.403      19767.528      132797.42      40.493615      40.493615      80.987229          16004 
     23000   3773.6268      903736.96      92.638004      903009.22      902641.74      905559.92      2330.8836      331.12413     -4508.422       7805.9362      11955.455      19761.391      132638.28      40.477433      40.477433      80.954867          16004 
     24000   3848.9073      896827.47      99.785521      899351.03      894033.32      897098.06     -4254.8572      2432.4505     -1660.9038      7961.6576      11831.183      19792.841      132946.2       40.508732      40.508732      81.017464          16004 
     25000   3794.8515      904061.68      106.92346      904389.81      905662.85      902132.4       2480.2046     -359.86056     -1104.9565      7849.8404      11956.067      19805.908      132688.95      40.482586      40.482586      80.965173          16004 
     26000   3804.7323      898871.9       114.05366      896366.11      901109.08      899140.51     -1028.1503     -2951.5081     -274.39852      7870.2795      11849.979      19720.259      132833.77      40.497309      40.497309      80.994617          16004 
     27000   3817.6433      899522.79      121.18534      900797.4       898629.58      899141.38      3211.0965      3962.71        3070.6536      7896.9865      11768.508      19665.495      132783.47      40.492196      40.492196      80.984393          16004 
     28000   3823.3232      901398.91      128.31747      898755.03      903692.93      901748.76     -5287.8927     -3359.0433      3625.8182      7908.7355      11871.054      19779.79       132786.76      40.492531      40.492531      80.985062          16004 
     29000   3758.3616      898304.02      135.44792      896777.95      898557.03      899577.08      27.323928      157.62186      2517.4573      7774.3593      11914.203      19688.562      132771.58      40.490988      40.490988      80.981976          16004 
     30000   3805.2216      901152.54      142.58143      899989.9       899972.67      903495.05     -1464.4098      4153.4741      6763.2615      7871.2914      11994.945      19866.236      132784.72      40.492324      40.492324      80.984648          16004 
     31000   3826.3935      897871.12      149.71429      897053.79      899747.82      896811.76     -1949.4404      1310.2911     -617.26952      7915.0866      11862.596      19777.683      132914.12      40.505473      40.505473      81.010945          16004 
     32000   3834.1018      904017.8       156.84782      905329.96      905298.57      901424.86      1153.1262     -3134.6607      269.85523      7931.0318      11794.739      19725.771      132658.79      40.479519      40.479519      80.959038          16004 
     33000   3783.0364      899943.23      163.97963      901014.52      903265.57      895549.6      -1652.0386      3648.2395      3094.9658      7825.4004      11945.669      19771.069      132792.16      40.49308       40.49308       80.98616           16004 
     34000   3801.5179      895024.51      171.11108      895653.37      896417.81      893002.36      1170.656      -3944.504       691.7978       7863.6302      11862.784      19726.414      132919.27      40.505996      40.505996      81.011992          16004 
     35000   3807.1557      902957.74      178.25302      898923.79      905505.83      904443.61     -1506.6502     -3789.607       2594.4131      7875.2924      11866.958      19742.251      132655.34      40.479168      40.479168      80.958336          16004 
     36000   3852.3736      896272.29      185.39709      897182.31      895057.93      896576.62      1565.1199      6243.7844      3049.3658      7968.8279      11798.455      19767.283      132878.87      40.501892      40.501892      81.003785          16004 
     37000   3797.0345      901482.99      192.53041      903497.03      898281.15      902670.78      1958.4477     -2012.1948      2690.6335      7854.3562      11948.692      19803.048      132721.95      40.485942      40.485942      80.971884          16004 
     38000   3818.2141      898488.7       199.66863      898370.87      899684.96      897410.28     -259.44762     -4363.3916     -850.4374       7898.1671      11940.44       19838.607      132804.32      40.494316      40.494316      80.988632          16004 
     39000   3787.8992      896242.2       206.80376      897345.65      895695.88      895685.07      851.97007     -5757.3417      2183.949       7835.4593      11795.792      19631.251      132867.96      40.500784      40.500784      81.001567          16004 
     40000   3828.5519      905406.78      213.94032      904509.18      903965.16      907746.02     -1884.4204     -1062.605      -2777.2874      7919.5515      12086.747      20006.299      132693.94      40.483094      40.483094      80.966187          16004 
     41000   3784.2697      897364.75      221.0755       897899.54      897993.18      896201.52     -2000.1032      1266.8965      445.06035      7827.9514      11844.401      19672.352      132840.84      40.498028      40.498028      80.996055          16004 
     42000   3847.0361      903678.02      228.21084      903698.27      903356.58      903979.21     -740.87708     -52.172987     -3307.2656      7957.7869      11880.853      19838.64       132717.56      40.485496      40.485496      80.970991          16004 
     43000   3812.4088      897076.34      235.34844      897185.55      899133.06      894910.4      -1736.4716      4453.3843     -4423.2657      7886.1586      11779.338      19665.497      132808.29      40.494719      40.494719      80.989439          16004 
     44000   3796.776       901956.19      242.48389      901124.84      899885.6       904858.12      761.43174      202.13532     -3439.6696      7853.8214      11979.092      19832.913      132709.83      40.48471       40.48471       80.96942           16004 
     45000   3754.7476      893196.69      249.62242      889064.07      896267.17      894258.82     -1465.2556     -2437.483      -3018.3317      7766.8835      11905.402      19672.286      132888.73      40.502894      40.502894      81.005788          16004 
     46000   3786.5673      910281.16      256.75805      911380.69      911209.87      908252.92     -2758.767       631.89807     -1317.6019      7832.7041      12014.806      19847.51       132499.23      40.463283      40.463283      80.926566          16004 
     47000   3813.4266      894702.06      263.89497      895557.17      895971.51      892577.5      -2181.7284     -2774.6324     -1111.6606      7888.264       11962.37       19850.634      132942.75      40.508381      40.508381      81.016763          16004 
     48000   3818.8447      901990.81      271.03029      902527.68      900923.8       902520.95     -4892.4863      2552.7184     -1580.155       7899.4716      11872.954      19772.425      132759.42      40.489752      40.489752      80.979505          16004 
     49000   3802.9988      900034         278.16595      899593.67      899304.41      901203.92      1869.0752     -514.50112      6327.0519      7866.6935      11955.417      19822.111      132803.56      40.494238      40.494238      80.988477          16004 
     50000   3803.7443      896023.88      285.30143      894568.32      898571.06      894932.26     -2309.7049     -2572.5124     -1099.7898      7868.2356      11742.514      19610.75       132876.67      40.501669      40.501669      81.003337          16004 
     51000   3835.3022      903909.66      292.43649      904286.95      901717.6       905724.42      569.71959      1573.7573     -3020.0168      7933.5148      11946.319      19879.834      132665.99      40.480251      40.480251      80.960503          16004 
     52000   3763.6056      898599.84      299.57338      896544.92      898111.54      901143.05     -4529.0118      672.15743      1916.6632      7785.2067      11925.054      19710.26       132829.24      40.496848      40.496848      80.993697          16004 
     53000   3805.1026      900622.71      306.70961      901197.61      902041.9       898628.63      692.91544      1650.6655      1438.3434      7871.0454      11879.128      19750.174      132759.15      40.489725      40.489725      80.979449          16004 
     54000   3810.8355      899197.97      313.84484      898916.92      902104.46      896572.54      6205.5311      1658.0141     -1086.7173      7882.9042      11996.658      19879.563      132823.89      40.496306      40.496306      80.992611          16004 
     55000   3779.0389      895981.71      320.98355      892584.91      895256.36      900103.87      3703.9641     -1149.8626     -2540.551       7817.1313      11910.153      19727.285      132854.75      40.499441      40.499441      80.998882          16004 
     56000   3785.9861      903716.67      328.11942      903654.42      903479.75      904015.85     -2128.7942     -3435.156       6432.9158      7831.5019      11981.839      19813.341      132659.65      40.479607      40.479607      80.959214          16004 
     57000   3778.595       897370.6       335.25486      896681.87      898662.55      896767.38      2279.25        3397.3187      2091.0408      7816.2131      11895.762      19711.975      132808.71      40.494762      40.494762      80.989525          16004 
     58000   3783.3823      902603.02      342.39213      903133.45      902833.9       901841.7       4114.1295      3583.422      -858.02272      7826.1159      11971.648      19797.764      132643.63      40.477977      40.477977      80.955954          16004 
     59000   3830.314       900243.67      349.52908      900693.5       903316.83      896720.68      3004.163      -3089.3436      1905.8406      7923.1965      11916.232      19839.428      132767.81      40.490605      40.490605      80.98121           16004 
     60000   3806.9148      899277.01      356.66633      896105.68      899711.06      902014.28     -9659.2735     -1818.8595      2121.03        7874.7941      11932.378      19807.172      132785.69      40.492422      40.492422      80.984845          16004 
     61000   3782.6514      904404.12      363.80343      905109.19      901841.15      906262.03      4387.1791     -258.91578      198.27622      7824.6039      11921.759      19746.363      132624.85      40.476066      40.476066      80.952133          16004 
     62000   3799.7439      886611.6       370.94163      885940.19      886917.29      886977.31      3591.4865     -3319.1163      1125.291       7859.9607      11738.98       19598.941      133094.12      40.52375       40.52375       81.047499          16004 
     63000   3798.9259      906253.89      378.08049      908422.64      905187.68      905151.36     -2216.2513      5763.295       1087.5359      7858.2686      11985.34       19843.608      132627.05      40.47629       40.47629       80.95258           16004 
     64000   3841.7803      896489.47      385.21731      895696.98      898624.66      895146.77      1283.6391      1551.4653      2695.7374      7946.915       11713.071      19659.986      132890.68      40.503091      40.503091      81.006183          16004 
     65000   3760.2055      903566.05      392.35704      902498.39      903636.64      904563.11      1800.2633      3738.0267      4525.6174      7778.1734      11969.866      19748.039      132704.41      40.484159      40.484159      80.968318          16004 
     66000   3846.6044      898901.27      399.49538      902276.91      898305.77      896121.11     -4437.9253      254.56216      1211.9775      7956.8939      11925.272      19882.166      132839.24      40.497865      40.497865      80.99573           16004 
     67000   3819.5536      902653.55      406.63496      903547.03      903424.51      900989.12     -100.81984      6717.168       2296.5878      7900.9381      11884.17       19785.108      132715.05      40.48524       40.48524       80.970481          16004 
     68000   3783.2107      892184.7       413.77216      895680.82      890643.06      890230.24      3585.3081      1772.2786     -2248.3132      7825.7609      11821.011      19646.772      132989.96      40.513175      40.513175      81.02635           16004 
     69000   3805.9208      906907.02      420.90857      905674.09      909232.8       905814.17      2090.7204      112.23121      2814.8803      7872.7379      12032.071      19904.809      132608.54      40.474407      40.474407      80.948814          16004 
     70000   3812.1808      900201.26      428.04738      899405.65      899617.05      901581.08     -201.7705       6804.7226      3155.7104      7885.687       11871.682      19757.369      132753.6       40.48916       40.48916       80.978321          16004 
     71000   3834.2999      899312.55      435.18659      900194.7       897034.19      900708.76      1323.5957     -1624.1622      300.35246      7931.4415      11944.62       19876.061      132811.17      40.495012      40.495012      80.990024          16004 
     72000   3796.2242      903309.23      442.32665      905777.55      904233.32      899916.81     -2675.0715      1804.9061      1586.8228      7852.68        11943.707      19796.387      132675.43      40.481212      40.481212      80.962423          16004 
     73000   3822.0864      897125.47      449.46529      894141.32      896029.57      901205.51      878.03191      2935.7883     -5073.7096      7906.1772      12033.669      19939.846      132850.06      40.498965      40.498965      80.99793           16004 
     74000   3779.2264      903248.13      456.60345      900328.11      907025.69      902390.58     -4139.1485     -1345.9881      4362.0946      7817.5192      11938.698      19756.217      132632.93      40.476889      40.476889      80.953777          16004 
     75000   3807.3757      894990.64      463.74127      894742.85      896841.9       893387.17     -897.499        5521.1674     -1429.5004      7875.7475      11884.953      19760.7        132889.06      40.502928      40.502928      81.005855          16004 
     76000   3762.7721      907780.85      470.87971      907446.86      906883.61      909012.07      997.75101      1202.0079      1325.6571      7783.4827      11939.516      19722.999      132497.25      40.463082      40.463082      80.926163          16004 
     77000   3826.1207      895722.73      478.01975      898939.33      895497.57      892731.28     -1259.8791      3610.3851      7619.4423      7914.5223      11801.529      19716.051      132905.96      40.504645      40.504645      81.009289          16004 
     78000   3758.4868      900097.38      485.15939      901963.51      896693.64      901635        -2381.7541      1114.115       2942.8234      7774.6183      11884.104      19658.723      132707.9       40.484514      40.484514      80.969028          16004 
     79000   3795.3226      903061.07      492.29799      902951.2       903087.31      903144.7       5673.1322     -122.37527     -2132.818       7850.815       11965.243      19816.058      132700.46      40.483757      40.483757      80.967513          16004 
     80000   3796.166       899133.89      499.43467      899050.93      898310.32      900040.42      687.71241     -1738.3055      3246.5985      7852.5595      11846.503      19699.062      132832.82      40.497212      40.497212      80.994425          16004 
     81000   3814.2896      905622.09      506.5717       907213.28      904193.96      905459.01     -1633.3003      2310.8219      2836.1143      7890.0491      11937.051      19827.1        132625.39      40.476122      40.476122      80.952243          16004 
     82000   3819.636       896834.84      513.70769      898340.1       893549.51      898614.9      -5018.4966     -2981.2044      2213.3832      7901.1084      11860.907      19762.016      132849.18      40.498875      40.498875      80.997751          16004 
     83000   3738.3993      902162.61      520.84607      902293.33      903873.64      900320.86     -2147.7343      2549.5515     -131.46643      7733.0663      11892.191      19625.258      132732.69      40.487035      40.487035      80.97407           16004 
     84000   3821.0507      900464.59      527.9835       901536.02      901441.55      898416.2       2861.4479      37.702684      4420.1502      7904.0347      11891.29       19795.325      132815.79      40.495482      40.495482      80.990964          16004 
     85000   3817.4567      899097.84      535.11951      900098.18      899550.23      897645.11      442.68545      3205.889      -3610.1199      7896.6005      11848.335      19744.936      132849.78      40.498936      40.498936      80.997872          16004 
     86000   3809.6094      904230.9       542.25654      905358.48      907652.18      899682.04      1384.4832      529.72501     -16.384633      7880.368       11925.16       19805.528      132685.9       40.482276      40.482276      80.964552          16004 
     87000   3834.4988      893417.05      549.39333      890577.48      895043.94      894629.73      7328.1979     -1309.0584      1319.949       7931.8529      11776.871      19708.724      133017.99      40.516022      40.516022      81.032044          16004 
     88000   3792.371       904665.04      556.52961      904418.49      905809.91      903766.71      1025.6454      6597.5153      2670.9642      7844.7095      11877.075      19721.784      132651.69      40.478797      40.478797      80.957595          16004 
     89000   3791.4607      898892.03      563.66536      898963.08      900217.22      897495.81      1760.9657     -3712.1917      1472.7951      7842.8264      11723.647      19566.473      132876.8       40.501681      40.501681      81.003363          16004 
     90000   3802.6446      901871.43      570.80037      903061.16      902329.83      900223.31     -346.2282       451.14998      476.89345      7865.9608      11942.082      19808.043      132765.58      40.490378      40.490378      80.980756          16004 
     91000   3788.5684      903018.73      577.9393       902391.41      902908.22      903756.57      98.683348     -827.1597      -2788.6149      7836.8435      11897.476      19734.319      132727.25      40.486482      40.486482      80.972964          16004 
     92000   3839.2673      896632.17      585.07526      898355.18      896595.33      894946         3103.0977      11.363483     -1384.5545      7941.7168      11934.122      19875.839      132889.08      40.502929      40.502929      81.005859          16004 
     93000   3807.3898      906354.27      592.2128       906759.47      905904.96      906398.4       2256.6539     -181.87215     -3162.6236      7875.7765      11958.23       19834.006      132616.43      40.47521       40.47521       80.95042           16004 
     94000   3789.0222      896649.14      599.34836      893600.68      898143         898203.75     -1348.4909      280.50936     -140.1953       7837.7823      11833.579      19671.362      132897.09      40.503743      40.503743      81.007487          16004 
     95000   3787.5929      907454.14      606.48534      905296.64      908784.7       908281.08     -387.35235     -4284.1266     -1548.5658      7834.8256      12055.326      19890.151      132638.81      40.477487      40.477487      80.954973          16004 
     96000   3801.4515      892304.82      613.62088      890615.38      892331.96      893967.13     -928.86568      2036.3439      3120.9132      7863.493       11749.741      19613.234      133049.83      40.519254      40.519254      81.038509          16004 
     97000   3784.0731      904598.74      620.76195      903655.61      902854.38      907286.23      3473.4879     -1131.69        8000.2933      7827.5447      12048.297      19875.841      132612.67      40.474828      40.474828      80.949656          16004 
     98000   3852.6954      899682.98      627.90043      898918.59      898071.94      902058.4      -708.10954      2432.3933      5418.4625      7969.4935      11847.366      19816.86       132794.35      40.493303      40.493303      80.986605          16004 
     99000   3829.6839      897934.05      635.03761      897870.07      898464.39      897467.7      -39.783167      1371.4853     -5072.1424      7921.893       11916.018      19837.911      132798.09      40.493683      40.493683      80.987365          16004 
    100000   3781.8869      902271.61      642.18913      902034.57      900308.17      904472.08      1730.3117      798.72617      4881.3248      7823.0225      11945.72       19768.743      132677.13      40.481385      40.481385      80.96277           16004 
    101000   3818.8516      897912.28      649.3218       897725.07      899356.56      896655.22      3063.077      -1198.2404     -1493.4609      7899.486       12038.204      19937.69       132819.34      40.495843      40.495843      80.991686          16004 
    102000   3779.3868      900860.75      656.45828      898938.13      901978.83      901665.28     -1603.6357      2581.7757     -426.12014      7817.8509      11904          19721.851      132731.84      40.486948      40.486948      80.973895          16004 
    103000   3797.6942      891762.49      663.59212      893070.64      891942.16      890274.66     -76.182015     -696.36089     -5126.5095      7855.7207      11894.371      19750.092      132969.92      40.511141      40.511141      81.022282          16004 
    104000   3811.4466      912451.44      670.73234      913338.62      913334.31      910681.39     -1402.6508     -3015.6438      4636.2451      7884.1683      12065.439      19949.607      132452.73      40.458549      40.458549      80.917098          16004 
    105000   3822.4847      893199.77      677.86715      893282.46      893864.72      892452.14     -398.1412      -582.27315      54.221205      7907.0011      11812.471      19719.472      132929.81      40.507066      40.507066      81.014133          16004 
    106000   3792.184       905588.07      684.9994       906720.42      905142.83      904900.97     -4303.7717      2974.1573     -2129.4447      7844.3226      11973.681      19818.004      132642.63      40.477875      40.477875      80.95575           16004 
    107000   3815.539       898972.5       692.1313       897737.95      899493.08      899686.48     -6068.5488      2391.8712     -15.319134      7892.6335      11801.875      19694.509      132828.06      40.496729      40.496729      80.993459          16004 
    108000   3783.0464      901343.11      699.26308      901889.84      900162.54      901976.96     -302.97125      202.39245     -5504.4495      7825.421       11926.483      19751.904      132692.09      40.482906      40.482906      80.965812          16004 
    109000   3848.7002      900964.27      706.39568      900066.25      900796.75      902029.8       1908.9822      2004.3279      303.94775      7961.2292      11967.374      19928.604      132752         40.488998      40.488998      80.977995          16004 
    110000   3785.3844      896486.03      713.52725      895559.86      898335.93      895562.3      -63.651004      31.445479      285.83739      7830.2573      11836.12       19666.378      132878.63      40.501867      40.501867      81.003734          16004 
    111000   3829.5209      900917.67      720.65948      900005.95      901777.78      900969.27      4643.7114      1101.5268      3132.4759      7921.5559      11965.003      19886.559      132753.11      40.48911       40.48911       80.97822           16004 
    112000   3809.4223      897589.78      727.79132      897256.73      898658.35      896854.26      3271.0003     -141.7757      -2282.7866      7879.981       11827.2        19707.181      132844.76      40.498426      40.498426      80.996852          16004 
    113000   3818.9067      905623.31      734.92355      908490.8       903010.05      905369.07      706.29689     -623.24446     -774.06846      7899.5998      11997.725      19897.324      132652.45      40.478874      40.478874      80.957748          16004 
    114000   3750.7208      890848.82      742.05801      889307.55      889618.58      893620.33     -321.51172     -3030.7074     -760.68008      7758.554       11755.187      19513.74       133003.58      40.514558      40.514558      81.029116          16004 
    115000   3824.0585      901101.09      749.18895      901215.02      899529.5       902558.75      1980.3911      1672.5545     -2600.4044      7910.2566      11895.93       19806.186      132739.17      40.487694      40.487694      80.975388          16004 
    116000   3796.0985      902568.13      756.32173      904297.66      902090.47      901316.26     -1280.3239      2252.3955      2892.2572      7852.4199      11938.906      19791.326      132702.12      40.483926      40.483926      80.967852          16004 
    117000   3814.5934      896973.25      763.4535       896641.61      899189.32      895088.82     -1609.1917     -3350.0945     -1813.713       7890.6775      11887.557      19778.234      132906.37      40.504686      40.504686      81.009372          16004 
    118000   3791.939       902722.93      770.58852      903667.9       902035.96      902464.92      990.36064     -928.69136      4154.1142      7843.8158      11867.449      19711.265      132699.38      40.483648      40.483648      80.967295          16004 
    119000   3813.5706      891612.29      777.7208       891194.53      893601.73      890040.6      -6331.7662      113.04721      3262.6563      7888.5619      11867.46       19756.022      133033.15      40.517561      40.517561      81.035122          16004 
    120000   3799.5084      906997.71      784.85333      908255.98      907322.63      905414.52      3620.6109     -1058.6213      6623.8361      7859.4734      12000.759      19860.232      132606.41      40.474191      40.474191      80.948382          16004 
    121000   3776.7613      898076.94      791.98745      899597.12      896859.01      897774.68     -152.05629      784.15494      1988.4167      7812.42        11900.329      19712.749      132800.95      40.493974      40.493974      80.987948          16004 
    122000   3777.2498      898823.82      799.11931      895397.08      899230.05      901844.34     -336.72749     -3882.2182      3024.8959      7813.4304      12031.756      19845.186      132818.52      40.495759      40.495759      80.991518          16004 
    123000   3820.6408      906207.55      806.25252      907065.3       906110.83      905446.53     -3374.7548      3345.7415      58.114608      7903.1868      11887.759      19790.946      132626.87      40.476272      40.476272      80.952544          16004 
    124000   3808.4323      892817.16      813.38599      894993.65      891440.56      892017.28     -4506.7022      2346.0292      1533.8339      7877.9329      11761.352      19639.285      132941.64      40.508268      40.508268      81.016537          16004 
    125000   3823.6151      907756.8       820.5159       907783.15      907591.59      907895.66      3873.3243     -405.71821     -2985.6304      7909.3394      12027.269      19936.608      132562.3       40.469703      40.469703      80.939406          16004 
    126000   3777.5922      895458.61      827.65048      893735.89      895632.16      897007.78     -4770.8148     -3193.2636      1116.068       7814.1387      11834.442      19648.581      132908.09      40.50486       40.50486       81.00972           16004 
    127000   3773.1446      900888.42      834.78111      900906.29      900053.74      901705.22      1043.2497      6147.3485      848.07095      7804.9387      11934.726      19739.665      132753.84      40.489185      40.489185      80.97837           16004 
    128000   3807.9601      899983.08      841.91231      900446.9       899223.68      900278.65      1297.4153     -2551.46        3377.4927      7876.9562      11882.17       19759.126      132737.62      40.487535      40.487535      80.97507           16004 
    129000   3828.7281      897417.34      849.04385      897117.48      897323.35      897811.19      4823.9442     -1018.0365      412.95084      7919.9158      11913.801      19833.717      132867.07      40.500693      40.500693      81.001386          16004 
    130000   3782.5285      896978.46      856.17578      894338.73      897646.47      898950.2      -2227.7061     -6718.1183     -854.70763      7824.3496      11921.275      19745.624      132833.41      40.497273      40.497273      80.994546          16004 
    131000   3792.7235      903027.08      863.30693      903466.25      906220.65      899394.34      314.92175     -2346.6646     -3402.478       7845.4386      11858.596      19704.035      132671.94      40.480857      40.480857      80.961713          16004 
    132000   3839.0809      898028.84      870.43981      900149.89      898176.48      895760.16      866.71555      2611.9914     -1033.581       7941.3312      11784.152      19725.483      132818.99      40.495807      40.495807      80.991614          16004 
    133000   3784.3589      896844.21      877.5709       896060.86      897870.14      896601.63      196.83123     -1943.0226      6833.2104      7828.1359      11864.306      19692.442      132869.1       40.500899      40.500899      81.001798          16004 
    134000   3768.4296      904746.13      884.7025       902635.16      904240.03      907363.19     -4813.9212      2036.7803     -1012.5045      7795.1855      11943.548      19738.733      132631.11      40.476704      40.476704      80.953407          16004 
    135000   3804.6346      891927.65      891.83539      891738.3       892019.76      892024.88      1665.3504     -3040.4935      1287.163       7870.0773      11832.53       19702.607      132997.79      40.513971      40.513971      81.027942          16004 
    136000   3807.2533      908488.11      898.96655      911588.94      905726.13      908149.26      1093.1359      141.67032      176.64925      7875.4942      12017.257      19892.751      132529.23      40.466337      40.466337      80.932674          16004 
    137000   3812.6412      895349.87      906.09873      898251.5       894068.1       893730         375.61248      2348.4463     -2374.1495      7886.6393      11906.399      19793.038      132884.27      40.502441      40.502441      81.004881          16004 
    138000   3799.9988      902837.95      913.23026      900942.15      904531.04      903040.68      1078.9348     -4316.0014      4859.3814      7860.4879      11837.323      19697.811      132715.14      40.48525       40.48525       80.970501          16004 
    139000   3805.484       898006.11      920.3612       897367.38      896769.12      899881.83      3610.0337      1791.6162      4360.8424      7871.8344      11926.479      19798.314      132841.02      40.498046      40.498046      80.996092          16004 
    140000   3817.5421      900441.06      927.49239      903234.88      901047.51      897040.77     -4396.1914      952.52561      1070.0537      7896.777       11915.337      19812.114      132754.19      40.489221      40.489221      80.978441          16004 
    141000   3802.4717      903261.78      934.62517      904701.35      904717.5       900366.49      2616.3924      6466.2646      3071.2819      7865.6033      11945.364      19810.967      132660.98      40.479742      40.479742      80.959483          16004 
    142000   3820.5363      893279.05      941.75662      893188.51      891912.61      894736.03      1435.8098      3175.3648      1614.1726      7902.9708      11843.113      19746.084      132958.32      40.509963      40.509963      81.019925          16004 
    143000   3784.5437      905722.22      948.88843      906582.66      906498.51      904085.49      2267.937      -1700.8803      2547.3606      7828.5183      11926.3        19754.818      132609.96      40.474552      40.474552      80.949105          16004 
    144000   3807.7221      897553.99      956.01818      899164.19      896475.28      897022.49      1645.0198      3536.2767      3329.8295      7876.464       11825.649      19702.113      132883.81      40.502394      40.502394      81.004787          16004 
    145000   3782.6516      904821.8       963.14859      902935.58      904455.94      907073.86     -5828.8709      2509.095       101.75411      7824.6043      11907.566      19732.17       132669.1       40.480568      40.480568      80.961136          16004 
    146000   3825.8435      896991.7       970.2788       897004.42      896665.04      897305.63      3558.2255      150.09261      2404.4436      7913.9489      11858.279      19772.228      132850.98      40.499058      40.499058      80.998116          16004 
    147000   3795.2584      900114.21      977.41095      898599.33      898902.24      902841.06      1995.6691     -3288.3089      2044.511       7850.6821      11761.802      19612.484      132803.75      40.494259      40.494259      80.988517          16004 
    148000   3789.15        909715.44      984.5419       908927.06      911329.97      908889.29      3337.0797      891.64082      2560.8988      7838.0467      12064.726      19902.772      132548.29      40.468277      40.468277      80.936554          16004 
    149000   3773.7069      894532.62      991.67569      893305.29      895047.47      895245.11     -3563.1687     -2106.7578      2120.8363      7806.1019      11754.834      19560.936      132924.62      40.506539      40.506539      81.013079          16004 
    150000   3796.8028      901390.74      998.80664      898340.44      905119.61      900712.18      4363.5692      1329.8917     -1140.3413      7853.8768      11951.724      19805.601      132693.68      40.483068      40.483068      80.966136          16004 
    151000   3843.7613      897513.62      1005.9389      897147.72      898889.32      896503.82      4256.7188     -1410.8194     -1679.9408      7951.0129      11883.385      19834.398      132911.06      40.505162      40.505162      81.010324          16004 
    152000   3796.3553      903906.05      1013.0688      906089.61      903928.56      901699.97     -2254.063      -1198.3345      1190.137       7852.9511      11928.161      19781.112      132656.19      40.479255      40.479255      80.95851           16004 
    153000   3795.2423      900653.4       1020.2004      897996.9       903315.87      900647.42      2923.1969     -6974.393       36.915736      7850.6488      11925.972      19776.621      132828.52      40.496775      40.496775      80.993551          16004 
    154000   3751.4969      899742.58      1027.3308      900836.69      898248.72      900142.34      143.68807      2471.3957      2980.3915      7760.1594      11843.165      19603.324      132770.76      40.490905      40.490905      80.981809          16004 
    155000   3824.2944      904024.29      1034.4639      905609.36      905902.06      900561.44      2834.4259      3164.4014     -881.18746      7910.7446      11949.83       19860.575      132632.3       40.476825      40.476825      80.953649          16004 
    156000   3795.341       886982.23      1041.5952      888088.85      886559.91      886297.92     -979.82166      2366.7116     -2131.0585      7850.853       11709.719      19560.572      133115.25      40.525894      40.525894      81.051788          16004 
    157000   3847.7693      908670.97      1048.727       908911.28      906430.17      910671.45     -1901.5902      448.04778      3164.5509      7959.3035      12022.006      19981.31       132582.63      40.471771      40.471771      80.943543          16004 
    158000   3760.3959      897071.28      1055.8573      895734.71      895567.64      899911.5       517.83428      645.07882     -1113.8481      7778.5674      11932.31       19710.877      132795.79      40.493449      40.493449      80.986897          16004 
    159000   3813.7344      901826.06      1062.9882      904738.61      901052.55      899687.04     -529.86522     -6906.1436     -5476.93        7888.9006      11960.104      19849.005      132753.4       40.48914       40.48914       80.97828           16004 
    160000   3780.1957      898310.6       1070.1204      899396.08      898821.24      896714.49      1102.2912      1588.5488     -1382.0403      7819.5241      11872.532      19692.056      132761.85      40.489999      40.489999      80.979999          16004 
    161000   3815.1931      902832.95      1077.2527      901989.94      900659.31      905849.61     -4011.9482      663.62583     -196.76912      7891.9181      11968.124      19860.042      132735.51      40.487321      40.487321      80.974642          16004 
    162000   3805.4106      899740.9       1084.3826      898960.01      899427.7       900834.99     -5098.3476      2519.0669     -4021.7789      7871.6825      11860.066      19731.749      132773.57      40.491191      40.491191      80.982382          16004 
    163000   3805.8953      900749.61      1091.512       901087.83      900887.75      900273.24     -3333.5836      4976.4952     -3131.4491      7872.6851      11908.245      19780.93       132787.28      40.492584      40.492584      80.985167          16004 
    164000   3764.434       903944.81      1098.6413      905270.65      902810.88      903752.89     -1600.1516      1920.7208      2997.7178      7786.9203      11962.103      19749.023      132636.32      40.477234      40.477234      80.954468          16004 
    165000   3817.3251      895353.44      1105.7719      895527.59      894807.36      895725.35      1641.9212     -3147.6425     -3792.2903      7896.3281      11831.625      19727.953      132935.92      40.507688      40.507688      81.015375          16004 
    166000   3788.5651      905612.12      1112.9038      907455.01      906233.58      903147.78     -295.0506      -542.0169       1021.6314      7836.8368      11941.018      19777.855      132612.1       40.47477       40.47477       80.949539          16004 
    167000   3807.2595      897136.47      1120.0341      896688.58      895893.73      898827.11     -3009.4994      2338.0504      2161.9305      7875.507       11912.478      19787.985      132824.07      40.496323      40.496323      80.992646          16004 
    168000   3762.7453      899609.94      1127.165       898902.53      901899.85      898027.46      2118.2317     -3979.8329      3422.3823      7783.4272      11960.767      19744.195      132759.74      40.489784      40.489784      80.979569          16004 
    169000   3830.4733      903961.98      1134.2954      902151.5       904531.85      905202.58     -731.82635      1142.0671     -1447.2575      7923.526       11948.95       19872.476      132704.09      40.484126      40.484126      80.968253          16004 
    170000   3782.4097      893571.1       1141.4263      893513.5       895677.77      891522.02      2932.6564     -1728.5174      2176.3057      7824.1041      11888.919      19713.023      132989.12      40.513091      40.513091      81.026181          16004 
    171000   3780.0691      905839.63      1148.5578      905747.74      906150.86      905620.3       2265.5411      7124.3468     -253.41593      7819.2624      11863.564      19682.826      132544.62      40.467903      40.467903      80.935807          16004 
    172000   3830.2344      893567.33      1155.6893      891784.06      893554.66      895363.28      303.02433     -1690.5873     -5019.2177      7923.0318      11836.886      19759.918      132962.38      40.510375      40.510375      81.020749          16004 
    173000   3803.193       907591.83      1162.8214      905756.36      908804.53      908214.59      5284.721      -6960.936      -4987.2664      7867.0952      11952.23       19819.325      132580.3       40.471534      40.471534      80.943067          16004 
    174000   3848.9668      896945.48      1169.9525      895425.09      896771.4       898639.95     -4580.7707     -1239.7338      748.76596      7961.7806      11917.721      19879.502      132866.84      40.500669      40.500669      81.001338          16004 
    175000   3798.8081      898731.87      1177.0843      893725.7       903620.55      898849.38     -3480.8509     -1514.7807      637.64001      7858.0249      11866.872      19724.897      132783.32      40.492181      40.492181      80.984363          16004 
    176000   3811.0006      904094.08      1184.2168      903805.88      904663.44      903812.91     -4200.6398      952.32156      2951.0029      7883.2457      12010.408      19893.653      132696.38      40.483342      40.483342      80.966684          16004 
    177000   3791.2315      898262.57      1191.3494      897332.26      898159.1       899296.36     -4778.396       900.54541      433.37219      7842.3524      11835.489      19677.841      132826.98      40.496619      40.496619      80.993237          16004 
    178000   3848.7419      902448.06      1198.4818      901786.35      902142.37      903415.46     -2507.9583     -694.35367     -4117.6002      7961.3154      12005.221      19966.537      132744.84      40.488269      40.488269      80.976538          16004 
    179000   3852.476       895947.3       1205.6132      896966.81      895842.57      895032.5      -2836.021       1721.9642     -5492.1733      7969.0396      11810.368      19779.408      132889.33      40.502954      40.502954      81.005909          16004 
    180000   3785.0566      906836.14      1212.7476      910034.75      904642.85      905830.82     -3695.7317     -1022.0051     -8240.113       7829.5791      11927.83       19757.409      132576.03      40.471099      40.471099      80.942199          16004 
    181000   3808.4288      890319.35      1219.8801      890110.24      889558.4       891289.4       4930.1937      1255.3502     -1306.5253      7877.9257      11760.446      19638.372      133025.52      40.516786      40.516786      81.033572          16004 
    182000   3828.4601      906410.47      1227.0126      907390.9       904462.9       907377.62      2015.9335      1410.3588     -3411.7694      7919.3614      12099.002      20018.363      132588.9       40.47241       40.47241       80.944819          16004 
    183000   3795.1806      896363.96      1234.146       897277.49      897244.82      894569.57      3836.1665     -2483.3497     -4494.9074      7850.5212      11873.576      19724.098      132830.33      40.496959      40.496959      80.993919          16004 
    184000   3810.1312      900038.98      1241.2789      901802.31      898408.47      899906.15     -3562.1806      699.50767     -6151.008       7881.4474      12008.783      19890.23       132778.38      40.49168       40.49168       80.983359          16004 
    185000   3789.4921      899519.64      1248.411       899412.87      898686.17      900459.89     -2659.8419     -3269.5871      1465.0393      7838.7542      11946.343      19785.097      132802.48      40.494129      40.494129      80.988258          16004 
    186000   3784.7054      899949.1       1255.5436      901239.97      902592.23      896015.1       6968.9574      325.76551     -4526.2554      7828.8527      11854.977      19683.83       132777.83      40.491624      40.491624      80.983248          16004 
    187000   3781.0466      907351.32      1262.677       907627.81      908225.03      906201.12      7443.2456     -1613.436      -1332.9179      7821.2843      11905.982      19727.266      132572.9       40.470782      40.470782      80.941563          16004 
    188000   3814.0763      890787.63      1269.8088      890262.28      891722.45      890378.15      3456.8471      111.76553     -2574.0071      7889.608       11804.819      19694.427      132988.77      40.513055      40.513055      81.026109          16004 
    189000   3797.1015      903133.63      1276.9409      904100.24      903046.81      902253.84     -4737.4439      2186.838       622.24867      7854.4946      11974.606      19829.1        132663.72      40.48002       40.48002       80.960041          16004 
    190000   3817.5026      896699         1284.0756      899031.85      897122.28      893942.86      1722.9202      2196.4371     -15.430356      7896.6955      11830.989      19727.684      132875.89      40.501589      40.501589      81.003178          16004 
    191000   3797.0107      902342.64      1291.2078      902573.42      901574.08      902880.42      1724.4094     -2803.3701     -1958.6641      7854.307       11827.469      19681.776      132704.47      40.484165      40.484165      80.968329          16004 
    192000   3812.8385      902635.46      1298.3378      903657.45      903665.93      900583        -4916.5922      3625.9603      516.15252      7887.0475      11907.268      19794.316      132770.89      40.490918      40.490918      80.981836          16004 
    193000   3785.4671      897086.94      1305.4698      897757.07      898708.85      894794.91     -2673.559       5413.2674     -2799.3005      7830.4284      11901.7        19732.129      132824.01      40.496317      40.496317      80.992634          16004 
    194000   3825.3124      904097.37      1312.6039      905110.1       903412.96      903769.04     -1196.6459      4053.6526      671.08769      7912.8503      11941.101      19853.951      132687.75      40.482464      40.482464      80.964929          16004 
    195000   3799.7138      893872.12      1319.7352      894248.21      894851.75      892516.4      -1.4476008     -3650.896       4368.1723      7859.8984      11802.555      19662.453      132949.58      40.509075      40.509075      81.01815           16004 
    196000   3817.7501      908305.32      1326.8668      911370.81      907137.96      906407.2      -1789.5515     -885.44684      5495.0298      7897.2075      11976.106      19873.313      132607.46      40.474298      40.474298      80.948596          16004 
    197000   3768.3259      892114.66      1333.9973      890644.97      894225.25      891473.76     -3215.4024      1534.0969      733.85459      7794.9709      11834.246      19629.216      133007.21      40.514928      40.514928      81.029855          16004 
    198000   3785.9775      905524.37      1341.1276      904174.44      905055.8       907342.89     -3650.9832      1262.1887      2701.5802      7831.4842      11862.807      19694.291      132639.28      40.477535      40.477535      80.95507           16004 
    199000   3813.435       898816.15      1348.2601      898368.42      899747.5       898332.53      4330.8548     -1798.8277      616.78454      7888.2813      11839.172      19727.453      132848.08      40.498763      40.498763      80.997526          16004 
    200000   3776.1883      898768.31      1355.3978      895784.79      901793.2       898726.94      2240.7879     -324.2327       8367.4501      7811.2347      11935.67       19746.904      132845.39      40.49849       40.49849       80.99698           16004 
    201000   3804.0197      902788.23      1362.5285      901408.4       902995.67      903960.62      2922.1899     -638.36127      4069.6981      7868.8054      11939.058      19807.863      132683.6       40.482043      40.482043      80.964086          16004 
    202000   3803.9059      898104.62      1369.6612      901072.33      897004.09      896237.44     -2662.2731     -3300.4042      2115.8797      7868.57        11779.147      19647.717      132828.39      40.496763      40.496763      80.993525          16004 
    203000   3799.6195      904288.82      1376.7936      904252.76      902795.27      905818.44      808.16491      4722.0855      4066.4411      7859.7032      11928.917      19788.62       132662.45      40.479892      40.479892      80.959783          16004 
    204000   3811.3214      900558.56      1383.9244      901517.94      898840.98      901316.74      472.69739      1041.2651     -2762.4804      7883.9093      11832.404      19716.313      132765.41      40.490361      40.490361      80.980722          16004 
    205000   3781.4796      898461.35      1391.0567      900870.68      897945.18      896568.19      7626.6673      2741.4667     -576.07732      7822.1801      11832.736      19654.916      132856.76      40.499646      40.499646      80.999291          16004 
    206000   3789.2335      904246.05      1398.1881      904314.7       903710.4       904713.04     -3865.2332      630.68132      404.06098      7838.2194      11995.067      19833.287      132651.7       40.478798      40.478798      80.957596          16004 
    207000   3820.4409      892691.88      1405.3188      890999.81      893940.28      893135.54     -1405.5653     -134.75206     -5091.4628      7902.7733      11868.489      19771.262      132983.79      40.512549      40.512549      81.025098          16004 
    208000   3809.1987      906437.33      1412.4506      907440.28      905484.08      906387.63      463.92289     -3030.617       5308.6482      7879.5183      11969.283      19848.801      132567.33      40.470214      40.470214      80.940428          16004 
    209000   3791.2008      893967.68      1419.5824      893360.2       895740.43      892802.42      2158.1295     -990.80247      1268.9486      7842.2888      11886.441      19728.73       132914.52      40.505514      40.505514      81.011027          16004 
    210000   3782.8533      904000.54      1426.7165      904863.72      904672.01      902465.89      827.01368     -3565.6693      4985.2311      7825.0215      11972.731      19797.752      132624.05      40.475985      40.475985      80.951971          16004 
    211000   3778.2326      899028.04      1433.8512      897548.21      899335.27      900200.65     -1866.8543     -2375.8131     -170.27297      7815.4633      11929.617      19745.08       132808.92      40.494784      40.494784      80.989567          16004 
    212000   3819.817       900120.37      1440.9834      900699.39      900044.17      899617.55      272.13438      145.61958     -6795.3012      7901.4829      11947.879      19849.362      132787.36      40.492592      40.492592      80.985184          16004 
    213000   3767.9061      898811.26      1448.1151      897192.13      901145.98      898095.66      1794.1738     -2219.1286     -190.2704       7794.1025      11968.367      19762.47       132731.52      40.486915      40.486915      80.97383           16004 
    214000   3792.3869      894520.88      1455.2473      894083.84      898031.54      891447.27      1409.2161      3940.3979      1277.4398      7844.7424      11893.831      19738.574      132892.71      40.503298      40.503298      81.006595          16004 
    215000   3786.455       907237.01      1462.379       908692.31      907681.24      905337.49     -3910.9202     -3275.3226     -2054.5827      7832.4719      11932.162      19764.634      132579.16      40.471418      40.471418      80.942836          16004 
    216000   3802.2677      894344.79      1469.5112      895764.43      893747.86      893522.07     -4032.4831      317.58034      4899.2359      7865.1813      11829.316      19694.497      132958.04      40.509934      40.509934      81.019869          16004 
    217000   3787.9828      902329.01      1476.6442      900689.51      902355.32      903942.19      750.25108      3390.2443      6445.6885      7835.6323      12006.053      19841.685      132688.13      40.482504      40.482504      80.965007          16004 
    218000   3799.9994      897677.78      1483.7773      897612.66      896192.11      899228.58      762.4978       6039.0288     -4775.8507      7860.4892      11786.086      19646.575      132884.38      40.502452      40.502452      81.004904          16004 
    219000   3753.7288      903951.5       1490.9112      906608.1       904653.48      900592.92     -1419.9036      855.67873     -3399.0875      7764.776       11861.098      19625.874      132692.25      40.482922      40.482922      80.965845          16004 
    220000   3814.7277      901158.21      1498.0453      897586.91      903267.35      902620.37      1392.9326     -4331.601       783.44158      7890.9554      11927.69       19818.645      132780.03      40.491848      40.491848      80.983695          16004 
    221000   3802.7802      899354.69      1505.177       898607.69      900454.28      899002.09      4677.8462      179.45645     -2170.016       7866.2414      11907.95       19774.192      132808.5       40.494741      40.494741      80.989482          16004 
    222000   3776.6577      906039.73      1512.3105      905748.23      906244.2       906126.77      2426.4791     -205.98513      974.6245       7812.2056      11979.024      19791.23       132690.28      40.482722      40.482722      80.965444          16004 
    223000   3811.1388      888548.44      1519.4435      889312.82      887436.63      888895.86     -4595.9493     -6245.9387      277.39942      7883.5316      11712.902      19596.434      133023.84      40.516616      40.516616      81.033232          16004 
    224000   3809.5721      908633.85      1526.5779      908717.93      909367.48      907816.14     -2323.6132     -619.6315      -726.45586      7880.2907      12025.043      19905.333      132561.91      40.469662      40.469662      80.939325          16004 
    225000   3813.9306      896109.33      1533.7117      900062.77      893711.02      894554.22     -3632.6774      3071.7075     -952.41539      7889.3066      11843.263      19732.57       132841.31      40.498075      40.498075      80.996151          16004 
    226000   3809.3425      903333.44      1540.8447      906250.8       902387.52      901361.99     -4647.7033      2641.5439     -3351.2118      7879.8158      11990.902      19870.718      132733.35      40.487101      40.487101      80.974203          16004 
    227000   3775.8461      900009.53      1547.978       900707.16      900561.89      898759.53      1915.8167     -3287.8811      486.39159      7810.5269      11919.867      19730.394      132780.06      40.49185       40.49185       80.9837            16004 
    228000   3778.7956      898008.25      1555.1123      898576.25      897940.16      897508.34      2044.8668     -961.89407      2964.7546      7816.628       11893.936      19710.564      132844.76      40.498426      40.498426      80.996852          16004 
    229000   3817.7296      904769.89      1562.2447      904325.91      904087.06      905896.7       308.68762      2285.756      -2741.3499      7897.1649      11949.752      19846.917      132653.71      40.479002      40.479002      80.958004          16004 
    230000   3783.0795      890688.42      1569.3787      890285.62      889002.93      892776.72     -4585.4406     -2953.7685      1940.4412      7825.4895      11829.759      19655.249      133026.88      40.516924      40.516924      81.033849          16004 
    231000   3791.3621      908482.08      1576.5134      910197.7       906761.57      908486.97     -770.40631      383.31482     -1830.3415      7842.6225      12058.358      19900.98       132570.7       40.470557      40.470557      80.941114          16004 
    232000   3814.0969      892676.85      1583.6475      894625.12      890208.65      893196.77      1200.1026     -2232.6002     -1079.1721      7889.6506      11781.754      19671.405      132966.05      40.510747      40.510747      81.021494          16004 
    233000   3789.8501      903657.47      1590.7798      902205.46      905439.42      903327.54      356.62686      306.15812      2669.0642      7839.4948      12023.279      19862.774      132694.21      40.483121      40.483121      80.966243          16004 
    234000   3798.8326      896598.14      1597.9144      897392.57      894686.87      897714.97      4912.5495     -71.569757     -4677.1316      7858.0756      11845.647      19703.723      132812.78      40.495176      40.495176      80.990351          16004 
    235000   3762.9647      903005.66      1605.0463      902927.05      904552.57      901537.35     -1410.0603      4411.148       2936.6918      7783.881       11943.529      19727.41       132668.99      40.480556      40.480556      80.961113          16004 
    236000   3787.799       897392         1612.1784      897885.91      899858.67      894431.41      669.55939     -2684.8558     -4216.4397      7835.2521      11871.545      19706.798      132799.29      40.493805      40.493805      80.98761           16004 
    237000   3794.6265      900120.4       1619.31        899809.75      900493.32      900058.14     -4328.2979      2342.5271      1958.0628      7849.3751      11924.358      19773.733      132733.69      40.487136      40.487136      80.974273          16004 
    238000   3804.8513      901236.93      1626.4432      901580.74      900399.54      901730.51     -906.50867      2681.1646     -5217.8027      7870.5256      11906.682      19777.208      132786.38      40.492493      40.492493      80.984986          16004 
    239000   3765.7688      899784.42      1633.5759      900617.39      899132.35      899603.5      -4360.5088      760.44815      1049.5253      7789.6814      11962.993      19752.674      132783.7       40.49222       40.49222       80.984441          16004 
    240000   3837.2458      902142.52      1640.7103      902069.34      904226.15      900132.07      96.136331     -1097.1689     -3730.0931      7937.5352      11967.268      19904.803      132693.87      40.483087      40.483087      80.966174          16004 
    241000   3788.8927      896110.77      1647.8439      894957.82      897414.44      895960.06     -2255.9522      5324.0608      2027.9169      7837.5143      11772.773      19610.287      132890.11      40.503034      40.503034      81.006069          16004 
    242000   3784.0839      908969.5       1654.9756      909068.56      909849.78      907990.17      4342.6545     -606.96748      1213.7412      7827.5671      12031.223      19858.79       132554.07      40.468865      40.468865      80.937731          16004 
    243000   3792.5863      894355.67      1662.1069      891544.82      894584.63      896937.58      3162.6055      1351.8976      1395.2861      7845.1547      11896.288      19741.443      132964.39      40.510579      40.510579      81.021159          16004 
    244000   3809.4682      904020.05      1669.2386      901685.1       903791.17      906583.87     -194.07722     -6749.4463      3855.3301      7880.0759      11889.95       19770.026      132713.06      40.485039      40.485039      80.970078          16004 
    245000   3805.101       900045.78      1676.3724      900516.39      899819.34      899801.6      -721.10695     -130.0885      -6270.2019      7871.0421      11978.322      19849.364      132807.76      40.494666      40.494666      80.989332          16004 
    246000   3819.7365      901683.65      1683.5058      903561.15      901023.37      900466.43     -2216.2986      262.2886       3625.929       7901.3164      11844.838      19746.154      132847.67      40.498721      40.498721      80.997443          16004 
    247000   3820.4596      904859.89      1690.6392      906012.88      904434.08      904132.7       3687.8515      1379.2456      606.48581      7902.8121      11797.33       19700.142      132613.07      40.474869      40.474869      80.949737          16004 
    248000   3766.8893      891216.8       1697.772       890695.78      892331.39      890623.24      2234.7569     -3329.3668      2333.6992      7791.9993      11849.769      19641.769      133062.22      40.520512      40.520512      81.041024          16004 
    249000   3783.8011      904544.57      1704.905       905044         904414.57      904175.14      844.95735      335.34732      3723.7391      7826.9821      11911.474      19738.456      132608.63      40.474417      40.474417      80.948833          16004 
    250000   3807.6409      898048.3       1712.0371      896867.21      898334.33      898943.37      2356.2617     -2221.4836      399.1123       7876.296       11888.638      19764.933      132850.23      40.498982      40.498982      80.997964          16004 
    251000   3848.7609      902361.08      1719.1705      900407.45      903797.15      902878.63      1261.2501     -1763.1737     -1897.1938      7961.3547      11922.332      19883.686      132744.37      40.488222      40.488222      80.976444          16004 
    252000   3817.7406      902615.8       1726.3065      903118.45      903670.09      901058.86     -4131.8389     -981.7474      -1969.2873      7897.1878      11883.749      19780.937      132722.17      40.485965      40.485965      80.971929          16004 
    253000   3761.9051      894067.81      1733.4382      896995.68      890166.44      895041.3      -2942.5562     -2423.8954      2057.1796      7781.6891      11862.108      19643.797      132949.36      40.509052      40.509052      81.018105          16004 
    254000   3814.6003      906671.77      1740.5729      907327.99      905000.24      907687.08     -3547.2306     -4598.8534     -1249.1786      7890.6919      12004.577      19895.269      132675.46      40.481215      40.481215      80.962429          16004 
    255000   3808.5952      893321.21      1747.7068      892155.64      893079.57      894728.41     -1113.6175     -1885.1402     -1240.3094      7878.2701      11783.332      19661.602      132912.08      40.505266      40.505266      81.010532          16004 
    256000   3812.9071      901874.69      1754.8405      902380.44      902404.62      900839        -6042.4543     -4605.4868      1806.4577      7887.1895      11975.554      19862.743      132742.21      40.488002      40.488002      80.976004          16004 
    257000   3782.2462      901716.82      1761.9741      901132.33      901911.9       902106.25      248.30665     -2076.3293     -1283.9029      7823.7658      11904.491      19728.257      132801.92      40.494072      40.494072      80.988144          16004 
    258000   3863.3451      900559.11      1769.1063      900761.75      899085.58      901830.01     -1531.348      -3236.173       2605.3398      7991.5229      11899.947      19891.469      132783.51      40.492201      40.492201      80.984403          16004 
    259000   3800.125       904428.92      1776.2399      906998.42      902394.89      903893.45      3871.8127     -976.19433     -468.30501      7860.749       11885.769      19746.518      132659.8       40.479622      40.479622      80.959243          16004 
    260000   3822.4396      895221.28      1783.3744      894320.97      894819.52      896523.34      6131.8343     -1190.9256     -1790.1594      7906.9077      11803.235      19710.143      132911.74      40.505231      40.505231      81.010463          16004 
    261000   3792.4353      902566.77      1790.5081      901267.67      901421.89      905010.76      2220.6904      964.42136      5030.3334      7844.8425      11970.029      19814.871      132646.35      40.478254      40.478254      80.956508          16004 
    262000   3841.8867      893594.06      1797.6409      893386.74      893177.73      894217.71      4120.1448     -1605.212      -880.90928      7947.1351      11853.209      19800.344      132954.57      40.509582      40.509582      81.019163          16004 
    263000   3787.2721      906274.69      1804.7735      903993.07      906479.55      908351.44     -829.35412     -3272.3174      1649.1881      7834.1621      12018.361      19852.523      132604.11      40.473957      40.473957      80.947914          16004 
    264000   3798.047       892498         1811.9057      892123.38      892906.75      892463.85     -3290.052       1907.48        203.13948      7856.4506      11732.77       19589.22       133007.83      40.51499       40.51499       81.029981          16004 
    265000   3824.6742      904549.97      1819.038       904694.12      902977.81      905977.97     -4806.4746      1495.2918      7759.9331      7911.5302      11987.502      19899.033      132629.97      40.476588      40.476588      80.953176          16004 
    266000   3800.7281      900110.5       1826.1699      896679.63      901431.32      902220.55     -2507.9523     -719.67886      3291.77        7861.9966      11891.193      19753.189      132797.88      40.493662      40.493662      80.987323          16004 
    267000   3781.9163      898529.07      1833.3029      898521.38      896231.51      900834.32      2293.8198      993.32609      2644.3748      7823.0834      11857.414      19680.498      132825.7       40.49649       40.49649       80.992979          16004 
    268000   3779.5109      902367.89      1840.4361      901641.86      903021.84      902439.99      2586.6699     -1859.0498      116.54892      7818.1077      11937.83       19755.938      132712.49      40.484981      40.484981      80.969962          16004 
    269000   3815.3565      895182.2       1847.5685      897367.23      892670.18      895509.19     -7484.4284      4012.3988     -2288.6476      7892.2561      11749.388      19641.645      132886.58      40.502675      40.502675      81.005351          16004 
    270000   3808.4449      908104.62      1854.7016      904803.45      910123.35      909387.07      4279.5506      2099.7247     -2753.6954      7877.959       12085.163      19963.122      132558.73      40.469339      40.469339      80.938677          16004 
    271000   3790.3358      893412.4       1861.8344      893170.47      890851.1       896215.64      4328.0367     -45.051488      3895.8654      7840.4995      11732.402      19572.901      132946.51      40.508763      40.508763      81.017525          16004 
    272000   3756.8589      906242.9       1868.9677      905419.92      908035.74      905273.06      3343.8868      470.61114     -469.69999      7771.2508      11988.491      19759.742      132590.5       40.472572      40.472572      80.945145          16004 
    273000   3824.9468      896184.7       1876.1005      899250.81      895456.02      893847.29      2402.5163      2468.8387     -797.31981      7912.0941      11826.846      19738.94       132883.43      40.502355      40.502355      81.004711          16004 
    274000   3801.7792      901269.33      1883.2325      901117.9       901431.58      901258.53      1815.6587     -940.49779      379.67656      7864.1707      11790.857      19655.028      132713.09      40.485041      40.485041      80.970082          16004 
    275000   3804.5467      901101.26      1890.3668      900598.25      899061.64      903643.9      -2254.2712      1966.7952      266.29323      7869.8954      11960.412      19830.307      132747.14      40.488503      40.488503      80.977006          16004 
    276000   3795.9235      898187.59      1897.4978      896840.22      899132.68      898589.88      2946.6308     -1711.6292      6442.0661      7852.058       11972.566      19824.624      132829.12      40.496837      40.496837      80.993673          16004 
    277000   3813.2712      903949.33      1904.63        902886.11      903500.85      905461.03     -1431.0471     -797.14897      3868.743       7887.9425      11966.58       19854.523      132627.14      40.4763        40.4763        80.952599          16004 
    278000   3783.9956      894566.43      1911.7638      893673.54      895961.66      894064.08      2773.1561      6056.6378     -216.8351       7827.3844      11869.259      19696.644      132876.29      40.50163       40.50163       81.00326           16004 
    279000   3850.4791      906954.61      1918.8979      907030.13      906282.17      907551.53     -2369.4323     -1827.1563      4397.7356      7964.9089      11925.476      19890.385      132608.49      40.474403      40.474403      80.948805          16004 
    280000   3758.1605      899221.24      1926.0326      900251.78      897829.08      899582.85     -830.0684       231.78799     -41.910592      7773.9433      11858.025      19631.968      132736.3       40.487402      40.487402      80.974803          16004 
    281000   3821.0525      895731.04      1933.1639      898514.83      895278.95      893399.34     -2746.5776      161.34376      2220.1094      7904.0386      11866.225      19770.264      132900.29      40.504068      40.504068      81.008137          16004 
    282000   3819.1429      904909.52      1940.2967      907794.48      902995.61      903938.46     -1006.8925      2379.9172      4027.4089      7900.0883      11983.446      19883.535      132687.97      40.482487      40.482487      80.964973          16004 
    283000   3801.7399      894438.5       1947.43        893598.41      895966.77      893750.31      2737.4994      2949.7673      2031.8184      7864.0894      11689.48       19553.569      132903.39      40.504383      40.504383      81.008766          16004 
    284000   3792.4778      902455.95      1954.564       902402.92      901353.88      903611.04     -1478.0111     -3153.7269      2300.3338      7844.9302      12001.152      19846.083      132729.16      40.486676      40.486676      80.973352          16004 
    285000   3806.9764      899663.63      1961.6978      900220.55      898785.67      899984.68     -1505.7729     -2558.9629     -6954.4472      7874.9215      11919.679      19794.601      132789.42      40.492801      40.492801      80.985603          16004 
    286000   3773.5342      900430.61      1968.828       900031.99      901299.6       899960.23     -987.49469      1949.6888     -428.49528      7805.7445      11912.32       19718.065      132770.46      40.490874      40.490874      80.981748          16004 
[...]
   3930000   4488.2839      905412.07      7306.3412      896420.12      898800.96      921015.13      46089.381     -2812.1353      1296.045       9284.2402      23982.535      33266.775      120840.36      39.499592      39.499592      77.450959          16004 
   3931000   4463.5292      900982.7       7314.1792      894528.6       895340.1       913079.42      40942.795      5007.2106     -5111.4697      9233.0339      24031.131      33264.164      120843.88      39.499975      39.499975      77.45171           16004 
   3932000   4498.059       900806.66      7322.024       896670.18      895918.09      909831.71      47231.961      2940.8565      5977.9936      9304.4604      23990.944      33295.404      120788         39.493886      39.493886      77.43977           16004 
   3933000   4469.5704      904882.73      7329.8649      893215.47      895301.63      926131.1       42222.915     -6387.2055      4211.0716      9245.5303      24040.922      33286.452      120802.45      39.495461      39.495461      77.442858          16004 
   3934000   4491.7809      894625.52      7337.7057      890036.43      884855.32      908984.8       44396.083      3121.6649     -5504.9051      9291.4739      23882.917      33174.39       121001.23      39.517112      39.517112      77.485312          16004 
   3935000   4455.2017      896371.92      7345.5485      887137.22      884338.02      917640.52      45719.845      1666.4892      5323.8936      9215.8079      23949.525      33165.333      121016.42      39.518766      39.518766      77.488555          16004 
   3936000   4457.9609      899386.99      7353.39        891320.64      891728.31      915112         48495.578     -2647.5992      437.21834      9221.5155      23983.951      33205.467      120944.39      39.510924      39.510924      77.473178          16004 
   3937000   4472.6579      899396.58      7361.2349      888799.64      891817.28      917572.84      43803.103      655.33193      316.88688      9251.9169      23953.039      33204.956      120944.67      39.510954      39.510954      77.473237          16004 
   3938000   4476.2602      900270.22      7369.082       888937.79      894494.97      917377.89      44276.654     -1277.2016     -1225.8847      9259.3686      23993.727      33253.096      120858.85      39.501607      39.501607      77.454909          16004 
   3939000   4524.8956      907729.91      7376.9263      898823.05      902520.92      921845.74      46593.15      -2231.4401      1903.3625      9359.9733      23993.535      33353.508      120678.96      39.481999      39.481999      77.416462          16004 
   3940000   4498.661       909247.1       7384.7771      903724.39      897030.74      926986.16      43975.602      4027.6554      605.0149       9305.7057      24008.377      33314.083      120749.9       39.489733      39.489733      77.431627          16004 
   3941000   4472.5358      893667.56      7392.6255      887124.03      884934.95      908943.7       48531.369      4530.4655      6573.8454      9251.6644      23855.24       33106.904      121117.31      39.529745      39.529745      77.510083          16004 
   3942000   4441.7604      898497.67      7400.471       891174.18      889707.36      914611.47      43549.806     -5888.8556     -1336.035       9188.004       23985.053      33173.057      120998.83      39.516851      39.516851      77.4848            16004 
   3943000   4479.029       896925.49      7408.308       890104.31      889011.94      911660.23      49042.982     -1427.3117     -1377.4015      9265.0958      23929.286      33194.382      120959.61      39.51258       39.51258       77.476427          16004 
   3944000   4446.9755      902150.89      7416.1425      897595.83      893700.15      915156.7       45824.54       5737.0073     -664.17346      9198.7916      24062.815      33261.607      120839.4       39.499487      39.499487      77.450754          16004 
   3945000   4433.2148      904327.72      7423.9814      898366.25      892871.71      921745.21      41960.72       930.2923       3536.6947      9170.327       24068.836      33239.163      120877.86      39.503677      39.503677      77.458969          16004 
   3946000   4510.1694      898682.07      7431.8183      892409.81      889229.62      914406.77      41808.402     -7416.9107      4675.3239      9329.5113      23887.703      33217.215      120916.34      39.507869      39.507869      77.467188          16004 
   3947000   4492.5248      904066.4       7439.6589      896770.93      895391.44      920036.84      44167.322      1697.279      -3665.7685      9293.0126      24000.018      33293.031      120781.36      39.493162      39.493162      77.438352          16004 
   3948000   4501.5052      901394.67      7447.5007      890047.72      890187         923949.3       45320.614     -42.157456      1365.0626      9311.589       23949.925      33261.514      120836.8       39.499204      39.499204      77.450198          16004 
   3949000   4506.8103      903988.39      7455.3389      893190.32      895944.48      922830.38      43577.142      7182.8499      803.28189      9322.5628      23956.044      33278.607      120806.44      39.495895      39.495895      77.44371           16004 
   3950000   4497.9656      897360.17      7463.1811      888925.13      889285.18      913870.2       44722.647     -2757.3812      1197.1886      9304.2673      23856.291      33160.558      121015.77      39.518695      39.518695      77.488417          16004 
   3951000   4450.9231      891569.9       7471.0208      887516.36      883171.32      904022.02      44452.715     -4467.0422     -1848.0081      9206.9575      23868.429      33075.387      121165.63      39.535001      39.535001      77.520389          16004 
   3952000   4491.2139      901731.9       7478.857       892964.82      889180.86      923050.01      46391.396     -427.62826      3616.0169      9290.301       23921.931      33212.232      120920.82      39.508356      39.508356      77.468144          16004 
   3953000   4490.519       900577.81      7486.6937      896861.1       889020.23      915852.09      47745.633     -3702.529      -3752.2555      9288.8635      23913.008      33201.871      120938.55      39.510287      39.510287      77.471931          16004 
   3954000   4473.1413      895781.36      7494.5285      890194.93      885276.02      911873.12      45274.87       390.13988     -1588.8801      9252.9168      23896.493      33149.41       121028.5       39.52008       39.52008       77.491132          16004 
   3955000   4507.6965      895230.24      7502.3628      889226.08      883410.67      913053.97      45523.879      5027.341      -138.03834      9324.396       23827.494      33151.89       121022.61      39.51944       39.51944       77.489877          16004 
   3956000   4503.4201      901860.85      7510.1987      895049.09      892292.96      918240.5       44221.2       -4364.1942      1767.249       9315.55        23922.299      33237.849      120868.76      39.502686      39.502686      77.457026          16004 
   3957000   4534.0367      909221.96      7518.0378      900720.86      903296.18      923648.83      41560.092     -2849.7573      4513.3084      9378.882       23949.487      33328.369      120707.26      39.485084      39.485084      77.422511          16004 
   3958000   4492.443       899565.88      7525.8788      889153.24      895411.13      914133.27      49115.062     -2460.4803     -6100.5393      9292.8434      23912.238      33205.081      120925.83      39.508902      39.508902      77.469214          16004 
   3959000   4499.5449      896759.97      7533.7196      885925.51      888689.36      915665.04      43639.782      4167.5405      1448.475       9307.534       23884.784      33192.318      120947.87      39.511302      39.511302      77.47392           16004 
   3960000   4483.7465      898130.97      7541.5541      885368.77      893563.63      915460.52      43096.932      823.15436      7844.3518      9274.8542      23937.288      33212.142      120911.28      39.507318      39.507318      77.466108          16004 
   3961000   4497.2676      902867.4       7549.3902      896972.2       895233.12      916396.89      47665.665     -630.27607     -2458.9291      9302.8233      23962.122      33264.946      120816.73      39.497017      39.497017      77.44591           16004 
   3962000   4497.9887      898017.06      7557.2297      892384.4       890189.16      911477.6       46100.641      4901.548       7681.9499      9304.3149      23866.83       33171.145      120981.42      39.514955      39.514955      77.481084          16004 
   3963000   4474.9095      894817.27      7565.0741      887351.17      885746.78      911353.85      44908.266      680.96651     -311.16282      9256.5745      23881.657      33138.231      121038.34      39.521151      39.521151      77.493232          16004 
   3964000   4454.5427      909044.29      7572.9192      901559.81      900913.25      924659.82      45930.292     -534.43237     -5871.2743      9214.4447      24112.923      33327.368      120697.98      39.484072      39.484072      77.420527          16004 
   3965000   4490.6829      903624.57      7580.761       896888.4       901372.44      912612.86      43124.752      3214.6422      1674.5067      9289.2026      23975.593      33264.796      120807.64      39.496026      39.496026      77.443967          16004 
   3966000   4459.2459      895260.47      7588.5998      892251.45      887543.84      905986.12      41069.95      -1688.9837      6119.8968      9224.1736      23917.75       33141.923      121026.97      39.519914      39.519914      77.490807          16004 
   3967000   4490.9489      895849.3       7596.4383      887973.39      886148.96      913425.55      48802.133      696.82847     -1156.0645      9289.7528      23827.907      33117.66       121069.13      39.524502      39.524502      77.499803          16004 
   3968000   4464.4784      901181.42      7604.2796      892180.13      894645.57      916718.56      46491.181      49.445732      895.2422       9234.9973      24004.904      33239.901      120851.14      39.500766      39.500766      77.453262          16004 
   3969000   4503.5105      904760.1       7612.1246      892794.11      896424.03      925062.16      48041.695     -1791.2027      2144.5174      9315.7371      23996.714      33312.451      120719.8       39.486451      39.486451      77.425193          16004 
   3970000   4472.1255      900595.69      7619.9647      892479.27      890000.93      919306.88      47059.25      -1397.257      -2910.2698      9250.8157      23977.175      33227.991      120867.59      39.502559      39.502559      77.456777          16004 
   3971000   4481.7175      895873.84      7627.8048      886285.41      890568.43      910767.67      44610.165     -3492.8804     -151.10931      9270.6571      23883.05       33153.707      120998.72      39.516839      39.516839      77.484778          16004 
   3972000   4455.3558      891086.47      7635.6436      885186.7       885551.46      902521.25      49157.597      2057.2413      1493.2099      9216.1266      23898.743      33114.869      121067.53      39.524329      39.524329      77.499462          16004 
   3973000   4492.1023      905188.9       7643.4859      898309.04      903497.56      913760.08      47234.101      3928.9004     -2093.5742      9292.1387      23997.766      33289.905      120755.53      39.490347      39.490347      77.432831          16004 
   3974000   4505.4362      904698.96      7651.3295      900900.25      894994.7       918201.92      48684.979     -411.87161      5075.3678      9319.7204      24008.275      33327.996      120687.85      39.482968      39.482968      77.418362          16004 
   3975000   4490.5272      896062.97      7659.1715      890800.14      885813.15      911575.62      40786.16       5937.7742     -2438.431       9288.8806      23875.974      33164.854      120977.46      39.514524      39.514524      77.480238          16004 
   3976000   4512.3112      893486.44      7667.0115      886593.28      891047.24      902818.81      45630.759      260.12928     -1666.8172      9333.9419      23793.078      33127.02       121044.32      39.521802      39.521802      77.494508          16004 
   3977000   4478.0457      899328.63      7674.8501      894389.14      888491.26      915105.5       45796.456     -6846.2222      2820.4666      9263.0618      23932.188      33195.25       120923.05      39.508599      39.508599      77.46862           16004 
   3978000   4469.1897      901336.34      7682.6928      896545.05      890473.25      916990.74      50561.041      5411.7908      2856.3337      9244.7428      23942.758      33187.501      120935         39.5099        39.5099        77.471171          16004 
   3979000   4474.3829      888947.89      7690.5361      878509.61      876901.99      911432.06      45218.283      2560.3898     -2174.8112      9255.4852      23793.38       33048.865      121180.55      39.536624      39.536624      77.523571          16004 
   3980000   4466.3083      899847.68      7698.3743      891455.65      887836.61      920250.79      46444.676     -2546.9675      874.93352      9238.7825      23938.702      33177.485      120948.62      39.511385      39.511385      77.474082          16004 
   3981000   4485.7327      898394.56      7706.2159      885515.75      893987.2       915680.73      49842.11       4292.3328      2473.7141      9278.9629      23898.66       33177.623      120947.17      39.511227      39.511227      77.473772          16004 
   3982000   4453.5216      894323.7       7714.0583      887157.65      887812.87      908000.59      46761.179      646.3003       418.74525      9212.3326      23890.591      33102.923      121078.76      39.52555       39.52555       77.501858          16004 
   3983000   4509.8254      897137.41      7721.8978      885553.2       886701.97      919157.07      46376.643     -1596.9811     -6735.8018      9328.7997      23861.976      33190.776      120920.83      39.508358      39.508358      77.468146          16004 
   3984000   4475.681       898257.85      7729.7339      889190.38      888180.86      917402.31      43796.501      1369.3879     -1868.9743      9258.1703      23950.507      33208.678      120887.26      39.504702      39.504702      77.460978          16004 
   3985000   4484.8703      905173.14      7737.5704      900867.02      897041.92      917610.47      46073.164      1596.5506      3148.8023      9277.1789      24009.088      33286.267      120747.89      39.489514      39.489514      77.431198          16004 
   3986000   4521.2876      906490.52      7745.4055      893661.09      902217.45      923593.01      45208.789     -1937.2654     -1963.7851      9352.5099      23962.243      33314.753      120696.17      39.483875      39.483875      77.420142          16004 
   3987000   4511.7865      895462.58      7753.2397      887016.69      886649.14      912721.91      47345.418     -1372.0363     -760.62581      9332.8565      23835.399      33168.255      120956.76      39.51227       39.51227       77.475819          16004 
   3988000   4482.3946      900947.62      7761.0733      893616.13      889430.78      919795.95      45141.11       3776.7389     -372.80842      9272.0577      23934.641      33206.699      120887.34      39.50471       39.50471       77.460995          16004 
   3989000   4547.0076      899801.15      7768.9069      889008.26      890684.29      919710.9       46021.929     -7192.2206     -7135.5389      9405.7131      23838.349      33244.062      120819.4       39.497307      39.497307      77.446479          16004 
   3990000   4533.2034      900571.61      7776.7427      893296.18      889601.61      918817.03      44844.527      1339.7623      3958.8479      9377.1584      23915.718      33292.877      120732.4       39.487826      39.487826      77.427887          16004 
   3991000   4533.1171      901370.15      7784.5798      895198.55      895967.86      912944.03      47342.526     -2301.4027      2089.0407      9376.9799      23919.331      33296.31       120725.76      39.487101      39.487101      77.426466          16004 
   3992000   4509.6965      903900.92      7792.4191      897804.63      897409.54      916488.58      44457.767     -2559.0056     -5392.4635      9328.5332      23983.815      33312.348      120697.68      39.484039      39.484039      77.420463          16004 
   3993000   4488.0491      904002.74      7800.2586      898604.2       896425.8       916978.23      50094.992      8868.9174     -119.24578      9283.7545      23970.614      33254.368      120799.21      39.495108      39.495108      77.442167          16004 
   3994000   4492.6291      898643.45      7808.0925      894276.99      890473.23      911180.12      51279.696     -6209.5655      4525.1619      9293.2285      23919.31       33212.538      120872.9       39.503137      39.503137      77.457909          16004 
   3995000   4520.4454      902667.79      7815.9289      895592.15      893243.5       919167.73      48971.377      5574.2652      1883.3844      9350.7677      23883.457      33234.225      120833.39      39.498832      39.498832      77.449469          16004 
   3996000   4515.7572      897292.59      7823.7718      888425.62      888355.78      915096.38      45785.251      5784.6699     -4031.3371      9341.07        23855.293      33196.363      120900.32      39.506124      39.506124      77.463767          16004 
   3997000   4535.3399      899045.85      7831.6096      892631.28      889839.23      914667.03      52676.013     -4467.9656     -3632.5969      9381.5778      23840.97       33222.547      120853.33      39.501005      39.501005      77.45373           16004 
   3998000   4471.5453      901746.49      7839.4466      895963.88      891324.73      917950.86      48926.699     -1270.7439      3924.9038      9249.6155      23955.578      33205.194      120883.75      39.504319      39.504319      77.460228          16004 
   3999000   4480.8729      899453.77      7847.2831      892088.83      893625.83      912646.65      48490.979     -850.48019     -2490.9636      9268.9101      23935.414      33204.324      120884.47      39.504397      39.504397      77.460381          16004 
   4000000   4484.0749      901264.15      7855.1236      893031.17      895012.18      915749.09      46329.565     -1978.3183     -1208.2129      9275.5335      23943.453      33218.987      120857.06      39.501411      39.501411      77.454525          16004 
Loop time of 7855.12 on 8 procs for 1000000 steps with 16004 atoms

Performance: 5.500 ns/day, 4.364 hours/ns, 127.305 timesteps/s
60.6% CPU use with 1 MPI tasks x 8 OpenMP threads

MPI task timing breakdown:
Section |  min time  |  avg time  |  max time  |%varavg| %total
---------------------------------------------------------------
Pair    | 7577.9     | 7577.9     | 7577.9     |   0.0 | 96.47
Neigh   | 14.182     | 14.182     | 14.182     |   0.0 |  0.18
Comm    | 38.854     | 38.854     | 38.854     |   0.0 |  0.49
Output  | 1.2953     | 1.2953     | 1.2953     |   0.0 |  0.02
Modify  | 199.06     | 199.06     | 199.06     |   0.0 |  2.53
Other   |            | 23.79      |            |       |  0.30

Nlocal:          16004 ave       16004 max       16004 min
Histogram: 1 0 0 0 0 0 0 0 0 0
Nghost:          15559 ave       15559 max       15559 min
Histogram: 1 0 0 0 0 0 0 0 0 0
Neighs:              0 ave           0 max           0 min
Histogram: 1 0 0 0 0 0 0 0 0 0
FullNghs:  1.89512e+06 ave 1.89512e+06 max 1.89512e+06 min
Histogram: 1 0 0 0 0 0 0 0 0 0

Total # of neighbors = 1895116
Ave neighs/atom = 118.41515
Neighbor list builds = 35235
Dangerous builds = 0
Total wall time: 8:33:55
