
atom_style atomic
units metal
boundary p p p
#atom_modify sort 0 0.0
newton on

read_data data.lammps
Reading data file ...
  orthogonal box = (0 0 0) to (43.790145 43.790145 87.58029)
  1 by 1 by 1 MPI processor grid
  reading atoms ...
  16004 atoms
  read_data CPU = 0.056 seconds
# replicate 10 10 20

### interactions

pair_style flare
pair_coeff * * lmp.flare
Reading potential file lmp.flare with DATE: Thu

# compute unc all flare/std/atom L_inv_lmp.flare sparse_desc_lmp.flare
# compute MaxUnc all reduce max c_unc

mass 1 12.011000
mass 2 28.085000

thermo_style custom step temp press cpu pxx pyy pzz pxy pxz pyz ke pe etotal vol lx ly lz atoms    #c_MaxUnc
thermo 1000
timestep 0.0005
restart 100000 restart_*.dat

#################### Equilibrate at P and T_es ##############################
velocity all create $T 41928459 rot yes dist gaussian
velocity all create 3800 41928459 rot yes dist gaussian
fix mom all momentum 1000 linear 1 1 1 angular

fix 1 all npt temp $T $T $(100.0*dt) iso $P $P $(1000.0*dt)
fix 1 all npt temp 3800 $T $(100.0*dt) iso $P $P $(1000.0*dt)
fix 1 all npt temp 3800 3800 $(100.0*dt) iso $P $P $(1000.0*dt)
fix 1 all npt temp 3800 3800 0.050000000000000002776 iso $P $P $(1000.0*dt)
fix 1 all npt temp 3800 3800 0.050000000000000002776 iso 100000 $P $(1000.0*dt)
fix 1 all npt temp 3800 3800 0.050000000000000002776 iso 100000 100000 $(1000.0*dt)
fix 1 all npt temp 3800 3800 0.050000000000000002776 iso 100000 100000 0.5
dump 1 all custom 1000 1equil.bin id type x y z vx vy vz
run   10000 # report performance
Neighbor list info ...
  update every 1 steps, delay 10 steps, check yes
  max neighbors/atom: 2000, page size: 100000
  master list distance cutoff = 6
  ghost atom cutoff = 6
  binsize = 6, bins = 8 8 15
  1 neighbor lists, perpetual/occasional/extra = 1 0 0
  (1) pair flare/kk, perpetual
      attributes: full, newton on, kokkos_device
      pair build: full/bin/kk/device
      stencil: full/bin/3d
      bin: kk/device
Per MPI rank memory allocation (min/avg/max) = 15.9 | 15.9 | 15.9 Mbytes
   Step          Temp          Press           CPU            Pxx            Pyy            Pzz            Pxy            Pxz            Pyz           KinEng         PotEng         TotEng         Volume           Lx             Ly             Lz          Atoms   
         0   3800           70189.119      0              69751.783      70235.542      70580.031     -874.11562      46.624223     -590.6524       7860.4904     -4000.2205      3860.2699      167941.93      43.790145      43.790145      87.58029           16004 
      1000   3714.9155      99862.681      6.4801536      101632.3       99777.235      98178.506     -655.68045      1136.426       2241.6934      7684.4888      4706.0015      12390.49       171519.62      44.098918      44.098918      88.197836          16004 
      2000   3798.3845      97642.919      12.891696      97840.778      98237.774      96850.204     -446.72176     -141.77942     -237.96593      7857.1487      5217.8778      13075.027      172347.92      44.169791      44.169791      88.339583          16004 
      3000   3805.2119      100195.6       19.301501      101052         101074.7       98460.098     -699.03868     -449.39487     -688.56297      7871.2714      4882.5397      12753.811      171764.18      44.119868      44.119868      88.239736          16004 
      4000   3798.699       101425.6       25.713606      102727.81      99282.042      102266.95      36.327917     -1283.4039      2079.5753      7857.7992      4869.7419      12727.541      171739.92      44.11779       44.11779       88.235581          16004 
      5000   3850.9502      99162.708      32.119714      99234.284      99998.303      98255.537     -243.89098      203.935       -566.98194      7965.8833      5017.984       12983.867      172184.78      44.155851      44.155851      88.311701          16004 
      6000   3813.1303      101911.7       38.529766      101628.7       102305.6       101800.79      1049.8119      145.35242      85.571694      7887.6511      4951.1159      12838.767      171829.07      44.125423      44.125423      88.250846          16004 
      7000   3770.6012      105302         44.940541      105589.93      106154.52      104161.56      1667.4866      735.89803      260.46839      7799.6776      4958.6855      12758.363      171405.18      44.089109      44.089109      88.178217          16004 
      8000   3802.5136      100729.34      51.328382      102203.72      100642.91      99341.38       12.209043     -268.17867     -1503.4018      7865.69        5056.2989      12921.989      171865.17      44.128513      44.128513      88.257026          16004 
      9000   3783.1813      99302.991      57.717119      99632.477      99287.171      98989.325      1413.7429      1177.6996      275.66671      7825.7         4977.2276      12802.928      171932.08      44.134239      44.134239      88.268478          16004 
     10000   3765.9317      99583.266      64.105563      97415.635      100676.52      100657.64     -40.574821     -579.01445      263.14355      7790.0185      4933.2646      12723.283      171916.16      44.132876      44.132876      88.265752          16004 
Loop time of 64.1056 on 8 procs for 10000 steps with 16004 atoms

Performance: 6.739 ns/day, 3.561 hours/ns, 155.993 timesteps/s
62.6% CPU use with 1 MPI tasks x 8 OpenMP threads

MPI task timing breakdown:
Section |  min time  |  avg time  |  max time  |%varavg| %total
---------------------------------------------------------------
Pair    | 60.737     | 60.737     | 60.737     |   0.0 | 94.75
Neigh   | 0.10437    | 0.10437    | 0.10437    |   0.0 |  0.16
Comm    | 0.46614    | 0.46614    | 0.46614    |   0.0 |  0.73
Output  | 0.013371   | 0.013371   | 0.013371   |   0.0 |  0.02
Modify  | 2.515      | 2.515      | 2.515      |   0.0 |  3.92
Other   |            | 0.2698     |            |       |  0.42

Nlocal:          16004 ave       16004 max       16004 min
Histogram: 1 0 0 0 0 0 0 0 0 0
Nghost:          13595 ave       13595 max       13595 min
Histogram: 1 0 0 0 0 0 0 0 0 0
Neighs:              0 ave           0 max           0 min
Histogram: 1 0 0 0 0 0 0 0 0 0
FullNghs:  1.36856e+06 ave 1.36856e+06 max 1.36856e+06 min
Histogram: 1 0 0 0 0 0 0 0 0 0

Total # of neighbors = 1368558
Ave neighs/atom = 85.513497
Neighbor list builds = 319
Dangerous builds = 0
run  990000
Per MPI rank memory allocation (min/avg/max) = 15.97 | 15.97 | 15.97 Mbytes
   Step          Temp          Press           CPU            Pxx            Pyy            Pzz            Pxy            Pxz            Pyz           KinEng         PotEng         TotEng         Volume           Lx             Ly             Lz          Atoms   
     10000   3765.9317      99583.266      0              97415.635      100676.52      100657.64     -40.574821     -579.01445      263.14355      7790.0185      4933.2646      12723.283      171916.16      44.132876      44.132876      88.265752          16004 
     11000   3796.7665      95854.063      6.3828119      95397.537      95456.049      96708.603     -1934.1164     -935.89459      2377.0387      7853.8017      4967.5493      12821.351      172242.76      44.160806      44.160806      88.321612          16004 
     12000   3802.9995      96969.518      12.772145      96823.718      98142.26       95942.574     -671.23029      3908.1963     -908.13994      7866.6951      4872.9995      12739.695      172101.08      44.148695      44.148695      88.297389          16004 
     13000   3772.7243      99953.509      19.162527      99357.747      99927.75       100575.03     -1256.9631     -908.85112      332.86193      7804.0693      4982.3302      12786.399      171844.17      44.126715      44.126715      88.253431          16004 
     14000   3817.1703      101285.68      25.552267      101154.36      101999.74      100702.94      1260.8646      735.46467      1106.5773      7896.008       5026.9708      12922.979      171735.2       44.117386      44.117386      88.234772          16004 
     15000   3805.2292      107253.22      31.940042      107176.39      107477.33      107105.95     -1097.3074      1401.1161     -1155.8698      7871.3073      5016.7878      12888.095      171339.75      44.083498      44.083498      88.166995          16004 
     16000   3792.2475      100393.42      38.3311        99257.631      100893.56      101029.08      1956.454       407.56675     -224.44007      7844.454       5024.3337      12868.788      171811.64      44.123931      44.123931      88.247863          16004 
     17000   3798.938       97502.412      44.721322      96728.215      98641.088      97137.934     -697.44092      1072.7759     -1076.742       7858.2937      5002.0266      12860.32       172124.16      44.150668      44.150668      88.301336          16004 
     18000   3788.3893      98720.916      51.114126      98672.689      98440.603      99049.457     -277.5677       1613.5325      573.19181      7836.4731      4845.6336      12682.107      171971.32      44.137596      44.137596      88.275193          16004 
     19000   3759.6468      97433.478      57.506448      97096.446      98036.134      97167.855      1064.0238     -1646.4618     -1086.0579      7777.0177      4929.955       12706.973      171939.77      44.134896      44.134896      88.269793          16004 
     20000   3805.5154      97764.969      63.897433      96712.765      98096.73       98485.411      1668.1123     -11.123961      2116.5581      7871.8992      4966.5893      12838.489      172154.25      44.15324       44.15324       88.306481          16004 
     21000   3791.5661      103192.2       70.288348      102632.44      101817         105127.15      300.51156      908.20728     -991.10877      7843.0444      4906.669       12749.713      171536.72      44.100384      44.100384      88.200767          16004 
     22000   3814.8766      104404.02      76.677491      104581.77      103254.32      105375.99      706.81902     -667.47962      4975.5827      7891.2635      4995.1061      12886.37       171550.79      44.101589      44.101589      88.203178          16004 
     23000   3856.717       106643.97      83.062822      106692.69      106849.43      106389.79      468.79157      2142.2414     -731.25889      7977.8124      5046.8914      13024.704      171445.39      44.092556      44.092556      88.185111          16004 
     24000   3810.0218      101332.33      89.446745      101802.37      101947.62      100247.02      295.86686     -66.569781      176.07314      7881.221       4989.2166      12870.438      171709.71      44.115203      44.115203      88.230406          16004 
     25000   3825.2942      100474.36      95.828767      101331.41      99767.795      100323.89     -867.07456      1495.802      -2247.7882      7912.8128      4975.0731      12887.886      171882.36      44.129984      44.129984      88.259968          16004 
     26000   3802.9009      100945.44      102.21151      102693.56      99720.351      100422.39      595.92737      1897.8576      2148.9017      7866.491       4905.7341      12772.225      171767.48      44.12015       44.12015       88.240301          16004 
     27000   3803.3602      100920.79      108.59466      99749.835      100542.64      102469.88     -2468.5431      135.01603      1225.422       7867.4412      4960.2286      12827.67       171798         44.122764      44.122764      88.245527          16004 
     28000   3823.7946      104639.79      114.97518      104563.39      105722.1       103633.87      1357.1784      1128.4043      1202.798       7909.7108      4919.243       12828.954      171521.9       44.099114      44.099114      88.198227          16004 
     29000   3786.7293      95272.707      121.36107      95634.398      95083.729      95099.994      723.2488      -1153.9577      1344.9389      7833.0394      4899.3962      12732.436      172206.88      44.15774       44.15774       88.315479          16004 
     30000   3790.2663      96577.293      127.7479       97265.353      95315.178      97151.349     -1851.5495     -981.28927      856.36911      7840.3556      4902.1791      12742.535      172195.46      44.156763      44.156763      88.313526          16004 
     31000   3769.5452      97649.813      134.13534      97936.752      97798.866      97213.822     -3115.3418      147.5508      -579.33755      7797.4931      4926.7913      12724.284      172027.38      44.142391      44.142391      88.284783          16004 
     32000   3793.0154      95638.62       140.52283      95378.382      95542.805      95994.674     -2055.2357     -1388.1629      2226.4717      7846.0424      4977.1619      12823.204      172159.07      44.153652      44.153652      88.307305          16004 
     33000   3807.9144      100115.28      146.9065       99687.487      99736.177      100922.17     -20.22774      -1191.9915      1707.5887      7876.8617      4932.272       12809.134      171866.19      44.1286        44.1286        88.2572            16004 
     34000   3829.1827      102389.4       153.2939       102736.4       102587.55      101844.24      1501.5318     -570.78563     -601.69303      7920.8562      4785.6898      12706.546      171588.84      44.10485       44.10485       88.2097            16004 
     35000   3816.1564      101155         159.68582      102616.68      99964.691      100883.62     -943.4939      -1283.4843     -1753.8234      7893.9107      5011.4255      12905.336      171760.18      44.119525      44.119525      88.23905           16004 
     36000   3763.5454      102215.05      166.07885      104036.05      101052.24      101556.85      1129.9434      192.28449      1572.0538      7785.0822      5000.9507      12786.033      171703.57      44.114678      44.114678      88.229356          16004 
     37000   3804.6399      96530.098      172.46946      98239.756      96037.825      95312.713     -768.69927     -1692.1468     -966.9439       7870.0881      5047.2111      12917.299      172292.99      44.165098      44.165098      88.330197          16004 
     38000   3800.2205      95928.982      178.85831      95292.513      96418.992      96075.44       1787.6877     -572.47308     -1312.3392      7860.9464      4856.4698      12717.416      172226.78      44.15944       44.15944       88.318881          16004 
     39000   3815.0467      100238.53      185.2449       100091.52      99241.901      101382.17     -2278.8547     -2974.8871     -788.59122      7891.6153      4956.8044      12848.42       171947.06      44.135521      44.135521      88.271041          16004 
     40000   3788.9001      102821.84      191.63322      101870.05      103621.07      102974.4       2075.1887      985.77971      586.08619      7837.5297      4941.8456      12779.375      171694.58      44.113907      44.113907      88.227815          16004 
     41000   3800.4267      100931.63      198.01904      102414.33      100722.97      99657.582     -1774.6089     -95.700042     -600.65999      7861.373       5057.9086      12919.282      171881.36      44.129898      44.129898      88.259796          16004 
     42000   3843.19        104657.13      204.40243      104517.92      104390.77      105062.71     -1899.7746     -3447.4537     -633.16646      7949.8311      4913.8938      12863.725      171554.67      44.101922      44.101922      88.203843          16004 
     43000   3792.3013      100637.79      210.78481      101142.14      102956.72      97814.492     -491.31996     -2386.7676      1181.2612      7844.5652      4936.6052      12781.17       171872.29      44.129122      44.129122      88.258245          16004 
     44000   3784.0366      98357.014      217.16801      98387.134      96225.67       100458.24      1756.4545      675.01675      2045.2326      7827.4693      4964.9916      12792.461      171976.47      44.138036      44.138036      88.276073          16004 
     45000   3821.9001      97488.513      223.54768      97004.405      99019.853      96441.279      277.7708      -486.78271     -92.688291      7905.7919      4998.5899      12904.382      172177.82      44.155255      44.155255      88.310511          16004 
     46000   3773.3669      97383.821      229.92629      98187.881      97702.445      96261.137      2552.5663      1944.9909     -535.91694      7805.3986      4965.5173      12770.916      172164.43      44.154111      44.154111      88.308221          16004 
     47000   3760.1282      100415.5       236.3063       99213.158      101229.76      100803.59      501.81301      307.61797     -2512.0932      7778.0135      4986.9474      12764.961      171895.09      44.131073      44.131073      88.262147          16004 
     48000   3796.9611      101717.82      242.68929      101118.13      102147.1       101888.23      697.99864      758.47866      1590.9413      7854.2043      4867.5447      12721.749      171644.18      44.10959       44.10959       88.219181          16004 
     49000   3822.1139      100529.06      249.07399      100515.75      100741.08      100330.34      2618.1096     -1424.1406     -2386.2097      7906.2341      4959.1723      12865.406      171961.21      44.136731      44.136731      88.273462          16004 
     50000   3819.6631      100935.29      255.45527      99656.532      100127.1       103022.22      249.84331      1084.3703     -2942.7064      7901.1645      4964.7428      12865.907      171930.87      44.134135      44.134135      88.268271          16004 
     51000   3769.1508      99072.23       261.83986      99109.063      100093.16      98014.47       1578.0619      3082.1255     -1605.1831      7796.6773      4963.2113      12759.889      171915.86      44.132851      44.132851      88.265702          16004 
     52000   3789.3664      95348.014      268.22368      96590.461      95054.463      94399.118     -3017.2289      1279.3529      65.43655       7838.4942      4984.7132      12823.207      172326.57      44.167967      44.167967      88.335935          16004 
     53000   3761.6638      99526.712      274.60992      98724.074      99655.851      100200.21      807.23628     -1913.6526     -2358.3566      7781.19        5043.3165      12824.506      171908.27      44.132201      44.132201      88.264402          16004 
     54000   3774.0784      102580.05      280.99954      102099.44      104039.37      101601.35     -563.12255     -466.17058     -720.09605      7806.8704      4946.4802      12753.351      171618.1       44.107356      44.107356      88.214713          16004 
     55000   3800.7034      99559.718      287.38632      99641.249      99498.332      99539.573      1082.7692     -1359.2653     -2804.3893      7861.9455      4966.684       12828.63       171902.43      44.131702      44.131702      88.263404          16004 
     56000   3827.5345      98345.766      293.77274      98064.27       98118.435      98854.593      2981.3021     -1161.5359      547.69523      7917.4468      4920.9829      12838.43       172037.81      44.143283      44.143283      88.286567          16004 
     57000   3789.8775      95717.43       300.16032      96550.346      95892.395      94709.548      1158.9739      1397.2908      41.899208      7839.5514      4930.4408      12769.992      172315.34      44.167008      44.167008      88.334016          16004 
     58000   3774.7533      96126.308      306.54561      97297.069      95868.71       95213.146     -1925.2908      559.57047      598.19261      7808.2664      4956.9177      12765.184      172165.41      44.154195      44.154195      88.308389          16004 
     59000   3807.0701      99265.232      312.9292       98125.753      100045.1       99624.84      -595.83771     -2356.1251      273.20576      7875.1151      4935.2234      12810.339      172048.96      44.144237      44.144237      88.288475          16004 
     60000   3838.6581      101375.11      319.31494      102305.22      99808.889      102011.23     -88.140013     -931.17682      2171.839       7940.4565      5053.0937      12993.55       171894.63      44.131034      44.131034      88.262068          16004 
     61000   3799.8755      101995.83      325.69765      103333.61      101259.51      101394.37     -732.9428      -12.791269      355.73166      7860.2329      4959.918       12820.151      171778.92      44.121129      44.121129      88.242259          16004 
     62000   3811.1877      103647.61      332.08428      102542.19      104405.18      103995.47      372.5023       834.352       -254.8884       7883.6328      4882.3196      12765.952      171539.14      44.100591      44.100591      88.201183          16004 
     63000   3784.0427      102138.16      338.46881      103145.68      101490.79      101778         575.64079      622.35838      870.43802      7827.4819      4981.7636      12809.245      171750.48      44.118695      44.118695      88.23739           16004 
     64000   3779.5154      98513.638      344.85239      98880.884      98004.579      98655.449      800.87186      673.33434     -2575.4875      7818.117       4988.6797      12806.797      172053.8       44.144651      44.144651      88.289302          16004 
     65000   3770.6689      99978.997      351.23837      99715.321      99317.099      100904.57     -2100.1313      641.73071     -1006.8142      7799.8175      4875.5239      12675.341      171745.78      44.118293      44.118293      88.236585          16004 
     66000   3817.6073      97173.83       357.62619      95548.038      97690.511      98282.94       1917.5022      1350.4782     -1060.4881      7896.912       4930.5716      12827.484      172036.31      44.143156      44.143156      88.286311          16004 
     67000   3763.0977      102423.38      364.01218      103294.22      100601.61      103374.31      1110.3197      1728.3068     -326.36418      7784.156       5004.6754      12788.831      171767.29      44.120134      44.120134      88.240268          16004 
     68000   3749.8358      103048.76      370.39896      101649.03      103934.27      103562.99      109.69163     -532.08679     -1597.9629      7756.7232      4823.4976      12580.221      171334.86      44.083079      44.083079      88.166157          16004 
     69000   3851.5734      100725.72      376.78394      100803.78      99072.209      102301.16      393.07562     -979.77881      2706.4481      7967.1724      4898.0705      12865.243      171743.87      44.118128      44.118128      88.236257          16004 
     70000   3815.7987      101816.06      383.17082      102781.24      101363.11      101303.82     -4305.758       1294.2973      759.25887      7893.1708      4915.348       12808.519      171756.54      44.119214      44.119214      88.238427          16004 
     71000   3780.7775      99328.889      389.5572       98029.15       99899.848      100057.67      1384.9611     -537.06802      549.23842      7820.7278      4936.5395      12757.267      172066.93      44.145774      44.145774      88.291549          16004 
     72000   3801.1057      97584.211      395.94279      98564.92       97772.953      96414.759     -60.709149      1629.299      -158.89604      7862.7777      4887.9962      12750.774      172025.6       44.142239      44.142239      88.284479          16004 
     73000   3827.0886      93560.423      402.32744      90851.368      94742.988      95086.912     -763.82936      680.37391     -1578.3292      7916.5245      4872.8603      12789.385      172371.27      44.171786      44.171786      88.343572          16004 
     74000   3765.0507      98408.787      408.71094      97959.035      99091.429      98175.897     -1902.7611     -1215.8726      1352.8532      7788.196       4836.0666      12624.263      171915.21      44.132795      44.132795      88.26559           16004 
     75000   3803.2109      100143.8       415.09489      100029.07      100130.87      100271.45     -315.19362      965.26074     -641.05438      7867.1324      4911.5363      12778.669      171853.39      44.127504      44.127504      88.255008          16004 
     76000   3828.0065      100446.72      421.47689      98921.813      101778.33      100640.01      1213.4931     -2020.6548     -659.85376      7918.4233      5007.9823      12926.406      171859.31      44.128011      44.128011      88.256023          16004 
     77000   3818.7503      104611.41      427.85917      103427.86      105792.24      104614.14      786.96901      1673.4159     -1394.1648      7899.2763      4876.3691      12775.645      171522.62      44.099176      44.099176      88.198351          16004 
     78000   3835.0688      98427.364      434.24026      97497.009      98501.661      99283.422      303.33122      4.0752359      859.19309      7933.032       4918.4761      12851.508      172010.33      44.140934      44.140934      88.281867          16004 
     79000   3786.5388      97420.46       440.62169      96570.664      98576.29       97114.426     -429.79931     -979.7829       90.805414      7832.6453      4963.0697      12795.715      172116.57      44.150019      44.150019      88.300039          16004 
     80000   3799.8962      100603.7       447.00535      99628.791      101561.4       100620.92     -1508.8843      598.59474      589.1559       7860.2757      4916.7376      12777.013      171869.98      44.128925      44.128925      88.257849          16004 
     81000   3772.8548      97555.218      453.38786      96092.812      98609.963      97962.877     -414.22215      568.26292      1045.0147      7804.3392      5033.1046      12837.444      172085.12      44.14733       44.14733       88.294659          16004 
     82000   3782.6243      101373.19      459.77608      103222.45      98337.195      102559.94     -1715.2867     -658.22853      175.38208      7824.548       4906.4697      12731.018      171663.87      44.111277      44.111277      88.222555          16004 
     83000   3800.3499      100808.93      466.15836      100490.52      101082.09      100854.18     -74.171253      2237.5595      1602.4152      7861.2143      4909.6456      12770.86       171763.57      44.119816      44.119816      88.239632          16004 
     84000   3817.9227      100278.97      472.54392      99825.19       99977.921      101033.8      -295.24536     -141.71957      694.41162      7897.5643      5027.2379      12924.802      171965.57      44.137104      44.137104      88.274209          16004 
     85000   3826.9542      103668.96      478.93311      104201.27      104062.67      102742.94      1834.7031     -1292.026       184.09752      7916.2464      4978.198       12894.444      171647.28      44.109857      44.109857      88.219713          16004 
     86000   3802.8784      103087.25      485.31909      102860.86      103512.91      102887.99      451.28739      128.87728      211.84533      7866.4445      4940.1612      12806.606      171649.02      44.110006      44.110006      88.220011          16004 
     87000   3810.6018      98824.956      491.70644      97682.239      98662.365      100130.27      1701.8861     -331.77949      1499.1808      7882.4208      4878.2097      12760.631      171980.5       44.138381      44.138381      88.276763          16004 
     88000   3824.8944      98127.438      498.0946       97281.14       98789.92       98311.253      988.55606      248.10132      2393.7807      7911.9856      4955.5065      12867.492      172133.42      44.15146       44.15146       88.302919          16004 
     89000   3771.2667      102049.44      504.48054      101576.45      101952.13      102619.73      310.27336      1920.1185     -950.55394      7801.054       5049.8794      12850.933      171774.54      44.120755      44.120755      88.24151           16004 
     90000   3787.9023      101076.76      510.86494      101260.72      100833.8       101135.75     -1931.2534     -55.843038      392.07114      7835.4657      4865.5416      12701.007      171714.06      44.115576      44.115576      88.231153          16004 
     91000   3800.2252      93832.679      517.24762      94504.513      93942.284      93051.24      -2268.3572     -147.62792      842.46971      7860.9563      4968.7016      12829.658      172402.43      44.174448      44.174448      88.348896          16004 
     92000   3780.3819      99015.109      523.63094      97559.39       99573.887      99912.05      -199.76519     -1177.8026     -495.58305      7819.9094      4895.739       12715.648      171935.32      44.134516      44.134516      88.269032          16004 
     93000   3804.9274      99672.006      530.01217      99540.866      100355.34      99119.811      1085.1053     -861.36819     -1471.7357      7870.6829      4930.818       12801.501      171884.08      44.130131      44.130131      88.260262          16004 
     94000   3806.809       99605.42       536.38867      98388.212      99200.498      101227.55     -903.88005     -1754.0988      732.91442      7874.5751      4935.7848      12810.36       171975.27      44.137934      44.137934      88.275868          16004 
     95000   3793.6518      99214.729      542.76765      100236.53      99283.66       98124.001      559.58556     -1411.8045      1067.5329      7847.3589      4935.3841      12782.743      171981.31      44.138451      44.138451      88.276902          16004 
     96000   3799.1519      101260.75      549.14697      101117.83      101643.1       101021.31      1436.7345      1142.4984      2465.0789      7858.7361      4952.2087      12810.945      171840.81      44.126428      44.126428      88.252855          16004 
     97000   3830.3271      101592.78      555.52609      102392.3       100545.52      101840.53      814.03559      128.36586     -300.18386      7923.2235      5014.7636      12937.987      171716.12      44.115752      44.115752      88.231504          16004 
     98000   3811.2546      106726.7       561.90809      106354.92      107449.56      106375.62     -1188.2469      941.12403      850.59696      7883.7712      4916.9246      12800.696      171407.98      44.089348      44.089348      88.178697          16004 
     99000   3812.8859      97039.519      568.29272      97915.608      98009.587      95193.362      641.14255      422.44613      634.75139      7887.1456      4893.5177      12780.663      172080.97      44.146975      44.146975      88.29395           16004 
    100000   3793.5558      99891.311      574.68321      100650.88      98820.441      100202.61      253.54879      735.19806      365.5602       7847.1602      4837.637       12684.797      171839.18      44.126288      44.126288      88.252576          16004 
    101000   3812.185       99605.641      581.06966      100010.93      97603.527      101202.46      1244.0323      59.132711     -599.0837       7885.6956      4967.5112      12853.207      172012.45      44.141115      44.141115      88.282229          16004 
    102000   3773.4973      99929.353      587.45755      100694.39      99995.353      99098.322      297.40724      799.35978      642.95885      7805.6683      5023.2035      12828.872      171849.72      44.12719       44.12719       88.25438           16004 
    103000   3785.867       105173.46      593.84889      105095.61      106847.8       103576.98      848.24458      1743.1672      2812.9933      7831.2555      5060.0718      12891.327      171460.52      44.093852      44.093852      88.187705          16004 
    104000   3830.5905      105750.55      600.24316      104501.41      106505.36      106244.89      1405.9401      2237.8666      60.703436      7923.7685      4957.6021      12881.371      171423.1       44.090645      44.090645      88.181289          16004 
    105000   3817.9832      101192.15      606.63122      100928.77      100383.12      102264.54      1606.0126     -848.63448     -1037.643       7897.6895      5033.8407      12931.53       171785.96      44.121732      44.121732      88.243464          16004 
    106000   3831.8612      99027.677      613.01843      100406.3       99453.801      97222.925      172.48564     -407.56437      3130.9331      7926.3969      4909.0853      12835.482      171985.1       44.138775      44.138775      88.277549          16004 
    107000   3777.0874      99025.856      619.40905      99687.723      99665.961      97723.882     -1774.0897      892.95349     -524.43074      7813.0944      4889.876       12702.97       171916.04      44.132867      44.132867      88.265733          16004 
    108000   3800.8183      93621.258      625.79695      93819.625      93918.786      93125.364      520.23715     -211.2431      -571.48084      7862.183       4968.9729      12831.156      172340.02      44.169116      44.169116      88.338233          16004 
    109000   3808.7108      100444.17      632.1832       100374.07      100952.42      100006.01     -398.52462      614.43128      1872.7704      7878.5092      4913.7476      12792.257      171799.22      44.122868      44.122868      88.245736          16004 
    110000   3786.586       101175.79      638.56982      100491.49      102774.34      100261.54     -649.51858      616.76793     -793.04006      7832.7428      4953.9123      12786.655      171751.28      44.118763      44.118763      88.237527          16004 
    111000   3756.6279      102344.61      644.95489      101500.4       103259.79      102273.63      2265.5136      350.24257     -2108.842       7770.7731      4992.9593      12763.732      171631.45      44.1085        44.1085        88.217             16004 
    112000   3843.85        103477.7       651.34101      102818.9       102453.53      105160.68      2477.2989      1948.2647     -392.03146      7951.1964      4952.7836      12903.98       171645.34      44.10969       44.10969       88.21938           16004 
    113000   3813.5217      98786.775      657.7226       98610.895      99531.012      98218.418      1368.7838     -46.623517      573.8436       7888.4607      5014.4291      12902.89       172051.63      44.144466      44.144466      88.288932          16004 
    114000   3813.1101      98803.608      664.10475      99224.729      99042.442      98143.652      145.86378      231.48756     -2220.8363      7887.6093      4888.0596      12775.669      171946.03      44.135433      44.135433      88.270866          16004 
    115000   3808.1334      97871.198      670.48748      97281.956      99069.785      97261.854      1542.5093      1996.1867      430.63237      7877.3147      5040.1848      12917.5        172160.57      44.153781      44.153781      88.307562          16004 
    116000   3820.5264      102286.55      676.87089      102094.05      103659.16      101106.44     -1541.7369     -2690.0424      282.32061      7902.9502      4899.6993      12802.65       171650.94      44.11017       44.11017       88.220341          16004 
    117000   3802.3442      100832.62      683.25674      100409.55      102031.29      100057.02     -338.98846      451.0713      -423.57547      7865.3394      5052.8672      12918.207      171875.12      44.129365      44.129365      88.258729          16004 
    118000   3798.4263      101675.28      689.63889      103161.21      100779.42      101085.21      1053.5279      815.02612     -294.86304      7857.2352      4983.8479      12841.083      171654.23      44.110452      44.110452      88.220903          16004 
    119000   3775.5234      106269.77      696.02233      105503.88      108227.53      105077.89      126.50671     -1516.1052      45.718895      7809.8594      4917.0582      12726.918      171367.2       44.085852      44.085852      88.171704          16004 
    120000   3792.3505      96910.643      702.41282      96179.521      96750.552      97801.857     -630.89336      125.04394      1183.6323      7844.667       5002.5109      12847.178      172111.42      44.149579      44.149579      88.299158          16004 
    121000   3788.0666      98514.701      708.79844      98121.037      99248.732      98174.335     -38.575731     -1019.4988      2772.762       7835.8055      4969.9263      12805.732      172058.24      44.145031      44.145031      88.290062          16004 
    122000   3798.4043      100324.99      715.18697      100817.8       100529.67      99627.523     -382.49965     -1816.9728     -1328.4574      7857.1897      4959.5269      12816.717      171792.17      44.122264      44.122264      88.244529          16004 
    123000   3812.6825      101139.07      721.57503      100574.68      100471.68      102370.87     -13.949721     -1746.525       2617.4362      7886.7248      4961.0926      12847.817      171813.97      44.124131      44.124131      88.248261          16004 
    124000   3785.9361      100130.4       727.96095      100594.98      99339.619      100456.6      -2560.8545      157.44975     -1726.9646      7831.3984      4939.401       12770.799      171748.11      44.118491      44.118491      88.236983          16004 
    125000   3794.5091      101261.66      734.34803      102267.54      100503.97      101013.46     -36.761826     -481.20771     -112.74937      7849.1322      4976.4682      12825.6        171792.94      44.12233       44.12233       88.24466           16004 
    126000   3799.809       101509.71      740.73507      101315.4       100647.66      102566.07      1554.3095     -936.37707     -1641.2855      7860.0953      4914.7268      12774.822      171824.5       44.125032      44.125032      88.250064          16004 
    127000   3804.9122      97972.826      747.12042      96729.495      98326.3        98862.683     -1356.6699      1001.8869      110.88223      7870.6516      4925.1666      12795.818      171915.68      44.132836      44.132836      88.265671          16004 
    128000   3803.2038      102300.83      753.50211      101528.35      102383.95      102990.19     -925.8307      -188.51915      1062.0619      7867.1175      4973.7026      12840.82       171674.69      44.112204      44.112204      88.224408          16004 
    129000   3799.4408      100965         759.88715      99254.759      102751.55      100888.7       363.73031     -434.29206     -1250.8512      7859.3336      4995.9406      12855.274      171779.92      44.121215      44.121215      88.24243           16004 
    130000   3845.793       104416.67      766.27097      105210.06      103728.83      104311.11     -2079.6639     -237.98433     -220.1085       7955.2155      4970.1048      12925.32       171583.73      44.104412      44.104412      88.208824          16004 
    131000   3798.4876      100870.18      772.65022      101562.4       100844.59      100203.56      934.60357     -335.06466      172.72866      7857.3619      5011.3041      12868.666      171670.36      44.111833      44.111833      88.223666          16004 
    132000   3828.1272      99186.823      779.03505      99810.339      98438.569      99311.562      226.30872      373.13241      2056.8945      7918.6728      5036.8358      12955.509      172072.12      44.146219      44.146219      88.292437          16004 
    133000   3787.8798      97933.073      785.41872      96244.31       98885.233      98669.677      580.32144      468.4549       165.28798      7835.4191      4994.3798      12829.799      172004.16      44.140405      44.140405      88.280811          16004 
    134000   3798.1604      101164.02      791.80564      100686.86      100007.47      102797.73      737.66144      80.427268      675.01042      7856.6851      4865.5647      12722.25       171800.59      44.122985      44.122985      88.245971          16004 
    135000   3807.6203      99612.69       798.19053      100592.67      99376.591      98868.807     -553.58453      1185.6688     -721.41011      7876.2534      4963.581       12839.834      171870.34      44.128956      44.128956      88.257912          16004 
    136000   3830.9952      107172.65      804.57733      106321.97      107734.21      107461.77     -439.57828      205.95219      86.348127      7924.6055      4876.1131      12800.719      171267.73      44.07732       44.07732       88.154639          16004 
    137000   3796.7095      103171.58      810.96348      101713.68      103336.1       104464.96     -491.99406     -2696.0547     -550.93181      7853.6838      4970.2999      12823.984      171648.39      44.109951      44.109951      88.219903          16004 
    138000   3843.9081      100539.47      817.35093      99791.661      100829.4       100997.34     -1307.0411     -931.95553     -26.722948      7951.3166      4996.9652      12948.282      171894.19      44.130996      44.130996      88.261993          16004 
    139000   3777.0636      99795.093      823.73589      99621.307      100321.55      99442.426      202.39508      604.34493     -148.8464       7813.0453      4938.069       12751.114      171938.35      44.134776      44.134776      88.269551          16004 
    140000   3822.6145      97012.841      830.12054      95855.7        97928.899      97253.925      3717.4337     -1428.8715      1036.5835      7907.2695      4975.2303      12882.5        172175.37      44.155046      44.155046      88.310093          16004 
    141000   3782.1553      100487.99      836.50365      99722.566      99912.383      101829.02     -1239.8841      912.5803       1239.6561      7823.5777      4938.9024      12762.48       171757.71      44.119314      44.119314      88.238628          16004 
    142000   3776.1889      97946.503      842.88798      97767.297      97520.524      98551.687     -3357.6952      139.28966     -963.70291      7811.2358      4935.3079      12746.544      172019.69      44.141734      44.141734      88.283468          16004 
    143000   3794.3868      96637.564      849.27179      97492.41       96281.284      96138.996      180.98023     -507.86702     -474.40101      7848.8793      4990.1022      12838.981      172204.71      44.157554      44.157554      88.315109          16004 
    144000   3756.3961      100840.34      855.64897      101164.31      102019.84      99336.861     -391.66157      2537.6769      155.12507      7770.2935      5000.7932      12771.087      171851.31      44.127326      44.127326      88.254653          16004 
    145000   3786.5833      101552         862.03195      102595.79      99662.82       102397.4       670.23479     -438.68842     -204.77611      7832.7372      4926.7945      12759.532      171814.9       44.12421       44.12421       88.24842           16004 
    146000   3820.11        97647.696      868.41512      98704.591      97820.717      96417.78      -1791.436      -1170.8269      1300.9353      7902.089       4968.9846      12871.074      172129.95      44.151163      44.151163      88.302326          16004 
    147000   3791.3907      96208.345      874.79556      95201.065      96974.531      96449.438      2194.6408     -543.29642      1691.407       7842.6816      4905.652       12748.334      172237.12      44.160325      44.160325      88.320649          16004 
    148000   3737.8459      91172.986      881.17934      91609.166      90774.617      91135.173     -971.999        498.78658     -1197.3923      7731.9214      4912.3051      12644.227      172418.85      44.17585       44.17585       88.3517            16004 
    149000   3772.4743      99254.77       887.56421      100631.42      97685.77       99447.116      772.30472      1272.8205     -1681.852       7803.5522      4996.739       12800.291      172008.51      44.140777      44.140777      88.281554          16004 
    150000   3807.2112      97250.403      893.94952      98514.737      96590.352      96646.118     -1514.9204      1203.6793      343.52894      7875.4071      5000.4436      12875.851      172123.14      44.150581      44.150581      88.301162          16004 
    151000   3812.875       102307.97      900.3328       103885.79      100843.42      102194.7      -1290.7174     -1283.0115      750.89207      7887.123       4906.7757      12793.899      171628.39      44.108238      44.108238      88.216476          16004 
    152000   3822.1468      100088.3       906.71827      99565.659      99739.574      100959.67     -241.85528      1789.0823      163.41803      7906.3022      5019.5022      12925.804      171942.64      44.135142      44.135142      88.270284          16004 
    153000   3824.1857      102944.44      913.10308      102009.38      104341.62      102482.32     -4734.4048     -862.76971     -376.37124      7910.5197      4929.7562      12840.276      171688.67      44.113402      44.113402      88.226804          16004 
    154000   3843.8271      101540.58      919.49472      102877.23      100661.23      101083.28      227.03244      1060.5749      1150.8097      7951.1489      4907.3558      12858.505      171860.08      44.128078      44.128078      88.256155          16004 
    155000   3832.2948      102252         925.88283      102859.73      101775         102121.27      2709.9973      1164.7693      642.37508      7927.2938      5025.7705      12953.064      171755.51      44.119126      44.119126      88.238251          16004 
    156000   3783.9263      97020.361      932.27092      95576.08       98465.265      97019.737      971.26632      1728.8607     -2015.7373      7827.2412      4946.3321      12773.573      172030.29      44.14264       44.14264       88.285281          16004 
    157000   3813.3963      98706.954      938.65782      98937.387      99160.949      98022.527      457.11471     -1767.4795      97.830551      7888.2013      5025.5522      12913.753      172138.99      44.151936      44.151936      88.303873          16004 
    158000   3784.6922      100721.48      945.04377      101922.85      99877.794      100363.79     -251.55308     -2423.5897     -1123.372       7828.8255      4978.0808      12806.906      171849.61      44.127181      44.127181      88.254362          16004 
    159000   3817.5279      98821.285      951.42916      99127.521      98157.823      99178.512     -2475.2141     -1122.0681      1057.7893      7896.7477      4935.9197      12832.667      171994.04      44.13954       44.13954       88.27908           16004 
    160000   3827.8936      100221.67      957.81205      100488.81      100080.94      100095.26     -731.60258      103.78785      1251.4785      7918.1898      5042.1763      12960.366      171946.85      44.135503      44.135503      88.271005          16004 
    161000   3820.1167      101454.59      964.19516      100480.93      102239.4       101643.45     -1189.9029      208.56133     -1185.683       7902.1028      4941.7829      12843.886      171806.19      44.123464      44.123464      88.246928          16004 
    162000   3787.0623      100286.41      970.57276      100674.37      99707.602      100477.25      283.15339      246.17757      1577.8183      7833.728       4994.035       12827.763      171873.97      44.129266      44.129266      88.258532          16004 
    163000   3825.9408      96220.307      976.94989      96588.774      95549.441      96522.706      1718.5713     -2046.3119     -245.52197      7914.1501      5027.2082      12941.358      172319.07      44.167327      44.167327      88.334655          16004 
    164000   3763.9039      97364.316      983.32853      98888.243      96626.708      96577.997      142.14371     -738.42115      628.62684      7785.8238      4982.5708      12768.395      172125.16      44.150754      44.150754      88.301508          16004 
    165000   3807.3813      97449.805      989.70787      98593.557      96328.9        97426.958     -275.16691      1513.6728      489.00172      7875.759       4989.4155      12865.175      172204.58      44.157543      44.157543      88.315087          16004 
    166000   3795.3389      99522.247      996.0871       100579.33      98747.006      99240.409     -13.700814      206.61651     -28.615172      7850.8486      5004.0166      12854.865      171968.78      44.137379      44.137379      88.274757          16004 
    167000   3794.9903      103209.27      1002.4694      103182.54      103953.43      102491.85      1528.8617      40.166827     -908.5744       7850.1275      4996.7206      12846.848      171673.5       44.112102      44.112102      88.224205          16004 
    168000   3805.163       101078.48      1008.8528      101025.11      101581.28      100629.04     -432.31651     -454.73831     -1157.138       7871.1704      4994.2934      12865.464      171828.7       44.125391      44.125391      88.250782          16004 
    169000   3761.9156      100163.59      1015.2394      100590.14      100688.18      99212.434      643.09544     -1840.1549     -999.93276      7781.711       4896.5926      12678.304      171845.97      44.12687       44.12687       88.253739          16004 
    170000   3813.4231      98649.297      1021.6261      98480.588      97826.755      99640.548      2678.573       1430.8379      296.76607      7888.2567      5027.8145      12916.071      172070.6       44.146088      44.146088      88.292176          16004 
    171000   3775.7384      103186.63      1028.0142      105739.65      101954.28      101865.95      2862.6646     -163.59035      428.08711      7810.304       4954.4885      12764.793      171679.21      44.112591      44.112591      88.225182          16004 
    172000   3819.6303      98404.939      1034.4049      99620.469      99720.921      95873.428      700.56395     -140.83084      444.05253      7901.0966      5018.4238      12919.52       172192.92      44.156547      44.156547      88.313093          16004 
    173000   3788.8583      99666.788      1040.7924      98156.694      100206.9       100636.77     -641.49628     -384.03793     -684.31092      7837.4431      5105.8016      12943.245      172063.34      44.145467      44.145467      88.290934          16004 
    174000   3809.382       104823.26      1047.178       104456.96      105072.08      104940.75      1024.1291     -822.23917      714.2423       7879.8976      4940.4442      12820.342      171623.92      44.107855      44.107855      88.21571           16004 
    175000   3823.134       102708.16      1053.5646      103103.71      101252.81      103767.96      589.39247     -1879.1701      948.76294      7908.3442      5044.35        12952.694      171830.74      44.125566      44.125566      88.251132          16004 
    176000   3804.418       101313.22      1059.9489      102911.11      100834.59      100193.95      983.98495     -1699.0101      1170.3041      7869.6293      4984.3096      12853.939      171896.36      44.131182      44.131182      88.262365          16004 
    177000   3764.7281      98052.882      1066.3348      98303.779      96764.62       99090.247     -1811.8782     -360.18163      650.10593      7787.5286      4980.6036      12768.132      172089.51      44.147705      44.147705      88.295411          16004 
    178000   3804.1125      94579.411      1072.7192      94821.483      94380.521      94536.229      2903.761       657.0604      -75.114194      7868.9973      4876.9591      12745.956      172264.23      44.162641      44.162641      88.325283          16004 
    179000   3782.4139      97823.098      1079.1021      96816.651      98643.586      98009.056      594.86335     -309.23062     -1996.5646      7824.1126      4972.2214      12796.334      172121.02      44.1504        44.1504        88.300799          16004 
    180000   3796.192       101194.57      1085.4839      102055.64      100872.08      100655.98      1253.5409     -187.17493      187.44652      7852.6133      4878.3443      12730.958      171760.1       44.119518      44.119518      88.239036          16004 
    181000   3778.2808      100938.74      1091.8664      101119.05      100726.96      100970.2       819.21971     -1407.0507     -13.993447      7815.5632      5073.6812      12889.244      171902.65      44.131721      44.131721      88.263441          16004 
    182000   3753.3076      104784.05      1098.2496      103699.56      105031.59      105620.99     -3026.8146      1363.2966      887.41091      7763.9047      4979.0319      12742.937      171569.07      44.103155      44.103155      88.206311          16004 
    183000   3839.1924      99302.53       1104.6285      99313.01       99239.956      99354.622     -591.66438     -682.33487     -141.89292      7941.5618      4962.7638      12904.326      172038.3       44.143326      44.143326      88.286652          16004 
    184000   3784.8726      96095.714      1111.0118      97087.119      94643.559      96556.462     -878.79233      243.68991     -312.63568      7829.1986      4966.1578      12795.356      172095.54      44.148221      44.148221      88.296442          16004 
    185000   3812.621       95750.547      1117.3934      95770.764      93817.064      97663.813     -785.99001     -299.75999     -68.180536      7886.5976      4877.6564      12764.254      172169.43      44.154538      44.154538      88.309076          16004 
    186000   3800.5197      96619.03       1123.7773      95331.202      96053.634      98472.255      262.79769      1388.5002      940.9826       7861.5653      5006.9713      12868.537      172132.4       44.151373      44.151373      88.302746          16004 
    187000   3825.1221      100799.26      1130.161       100842.78      100199.34      101355.64      48.725791     -2010.4314     -570.75275      7912.4567      5000.4796      12912.936      171895.22      44.131085      44.131085      88.26217           16004 
    188000   3776.0113      106253.73      1136.5453      106258.23      105482.46      107020.51      412.2807      -1594.073      -2026.1549      7810.8685      5065.7201      12876.589      171410.84      44.089594      44.089594      88.179188          16004 
    189000   3788.9162      99426.706      1142.9286      99406.404      99794.238      99079.477     -1559.058       488.85161      1693.8952      7837.5631      4956.1203      12793.683      171769.84      44.120352      44.120352      88.240705          16004 
    190000   3794.165       98666.993      1149.313       98511.157      98767.062      98722.762     -501.04585      1422.1006     -330.7548       7848.4204      4905.7908      12754.211      171920.86      44.133279      44.133279      88.266558          16004 
    191000   3825.6726      95378.695      1155.6988      94148.61       95675.038      96312.438      818.84821      1143.7344      1243.2929      7913.5954      4896.4065      12810.002      172258.32      44.162136      44.162136      88.324271          16004 
    192000   3777.7414      100016         1162.0862      99560.461      100212.55      100275        -1591.4831     -800.63182      2435.6714      7814.4473      4873.0688      12687.516      171785.07      44.121656      44.121656      88.243312          16004 
    193000   3839.6042      100577.64      1168.4703      99829.009      100113.49      101790.43      2492.614      -963.14308     -780.06237      7942.4136      4950.5928      12893.006      171810.85      44.123864      44.123864      88.247727          16004 
    194000   3803.614       101417.49      1174.8548      100932         100520.87      102799.62      1296.3675      271.97215      441.82009      7867.9662      4960.3606      12828.327      171780.64      44.121277      44.121277      88.242553          16004 
    195000   3794.9178      99047.204      1181.2404      99512.114      99199.399      98430.098     -1042.4958     -897.9833      -865.81482      7849.9775      4963.7877      12813.765      172003.04      44.14031       44.14031       88.28062           16004 
    196000   3804.1301      96270.224      1187.6244      96055.821      96479.807      96275.045      1775.5787     -22.215733      153.98428      7869.0336      4910.3802      12779.414      172158.59      44.153612      44.153612      88.307224          16004 
    197000   3777.6923      98024.473      1194.0089      97190.07       97884.833      98998.515     -362.80373      1458.0309      3981.8864      7814.3459      4966.3161      12780.662      172014.66      44.141304      44.141304      88.282608          16004 
    198000   3753.8771      98687.218      1200.3921      98431.108      99125.981      98504.565     -1057.8207     -1986.0889      2112.5541      7765.0828      4896.3762      12661.459      171950.2       44.135789      44.135789      88.271578          16004 
    199000   3836.2756      101817.98      1206.7751      102406.9       100175.33      102871.71     -1353.4703     -601.17763     -2605.6984      7935.5282      4905.6561      12841.184      171712.12      44.11541       44.11541       88.23082           16004 
    200000   3798.638       100374.75      1213.1661      99273.659      101226.04      100624.56      1719.0972      302.54956      1512.4169      7857.673       5038.1296      12895.803      171874.6       44.12932       44.12932       88.25864           16004 
    201000   3847.591       101323.46      1219.5499      101271.77      100749.63      101948.97     -289.82538      567.06468      594.53609      7958.9347      4955.1447      12914.079      171864.19      44.128429      44.128429      88.256858          16004 
    202000   3779.4558      102824.76      1225.9368      102960.08      102877.94      102636.26      1128.7837     -363.99211      955.64261      7817.9937      4826.1259      12644.12       171585.72      44.104582      44.104582      88.209165          16004 
    203000   3764.3899      101697.25      1232.3212      100883.45      102865.36      101342.93      1466.45       -1808.8402      660.18463      7786.8292      5064.6595      12851.489      171946.44      44.135467      44.135467      88.270935          16004 
    204000   3813.0381      96074.118      1238.7051      97592.887      96523.798      94105.669     -624.57959     -242.83552      378.13014      7887.4604      4944.0347      12831.495      172169.26      44.154524      44.154524      88.309048          16004 
    205000   3758.5709      95393.069      1245.0954      94455.968      95245.774      96477.464      1849.2552     -1095.4939      1021.4794      7774.7922      5046.4557      12821.248      172324.76      44.167813      44.167813      88.335626          16004 
    206000   3790.1434      99580.612      1251.4822      98836.973      100043.45      99861.417     -77.022131      93.228008      150.19796      7840.1016      4935.1214      12775.223      171884.15      44.130138      44.130138      88.260275          16004 
    207000   3801.8032      100047.76      1257.8706      99489.065      99203.376      101450.85     -1818.3987      493.91578      30.29966       7864.2205      4998.0081      12862.229      171844.39      44.126734      44.126734      88.253469          16004 
    208000   3823.7773      102652.85      1264.2557      102230.43      102643.29      103084.84     -1547.5168     -255.02572     -826.71183      7909.6749      5044.7189      12954.394      171764.55      44.1199        44.1199        88.239799          16004 
    209000   3809.1064      104918.71      1270.6373      104506.24      104846.79      105403.1       39.970795     -470.90836      1959.1012      7879.3275      4990.6323      12869.96       171523.12      44.099218      44.099218      88.198437          16004 
    210000   3795.6621      102505.24      1277.0198      102220.28      102651.74      102643.69      268.2851       721.13        -376.91514      7851.5172      5063.9539      12915.471      171796.82      44.122662      44.122662      88.245324          16004 
    211000   3807.733       97826.109      1283.404       97616.696      98457.323      97404.307     -1395.1178     -234.84744     -800.84397      7876.4865      4974.2778      12850.764      171968.52      44.137357      44.137357      88.274713          16004 
    212000   3796.1911      101654.35      1289.7846      101822.92      100381.75      102758.36      194.13886      3280.2593      612.81312      7852.6114      4954.264       12806.875      171729.7       44.116915      44.116915      88.23383           16004 
    213000   3812.0136      101442.91      1296.1642      102707.37      100597.86      101023.49     -411.81553     -598.90929      272.4625       7885.3411      5084.5059      12969.847      171882.86      44.130027      44.130027      88.260054          16004 
    214000   3825.2881      103529.29      1302.5443      103822.13      103109.9       103655.84      128.0476       953.43544     -1894.6583      7912.8         4898.136       12810.936      171681.76      44.112809      44.112809      88.225619          16004 
    215000   3808.1551      98892.675      1308.926       98433.854      100238.78      98005.395     -1917.0768      57.013975      1345.0752      7877.3596      4991.3845      12868.744      171939.65      44.134886      44.134886      88.269773          16004 
    216000   3794.3239      97394.026      1315.3104      97194.698      98468.363      96519.017     -349.71306      746.08886      3689.669       7848.749       4909.7812      12758.53       172033.81      44.142942      44.142942      88.285884          16004 
    217000   3815.2127      99189.397      1321.6927      99148.529      100333.26      98086.4       -705.13423     -602.34555      881.65346      7891.9587      4889.9078      12781.866      171902.73      44.131727      44.131727      88.263455          16004 
    218000   3776.9205      99734.441      1328.0788      98061.89       100797.09      100344.34      558.21893      2255.0461      489.74782      7812.7492      4975.5429      12788.292      171869.82      44.128911      44.128911      88.257822          16004 
    219000   3829.4403      103231.75      1334.4625      103684.96      102622.17      103388.13      503.7668      -1293.8635     -906.05582      7921.3892      4905.5008      12826.89       171739.4       44.117746      44.117746      88.235493          16004 
    220000   3797.3101      105481.96      1340.8513      105957.48      105637.55      104850.85     -1850.0595      356.43623     -1171.6466      7854.9262      4989.9652      12844.891      171433.95      44.091575      44.091575      88.183151          16004 
    221000   3790.4438      103708.31      1347.234       103314.53      102673.04      105137.35      1467.3746      752.38223     -126.58945      7840.7228      5026.1611      12866.884      171737.21      44.117559      44.117559      88.235118          16004 
    222000   3842.4152      101402.48      1353.6213      100930.31      101326.74      101950.39     -151.2733       1811.1285     -1949.0001      7948.2284      5064.4563      13012.685      171992.55      44.139413      44.139413      88.278825          16004 
    223000   3793.5596      102988.29      1360.0093      104303.21      102866.97      101794.71     -2281.9166      795.81451      1955.2729      7847.168       5001.1552      12848.323      171777.32      44.120993      44.120993      88.241986          16004 
    224000   3801.0318      101349.33      1366.4001      100856.58      101788.14      101403.26     -1700.5227     -155.56678      54.334196      7862.6246      5014.9042      12877.529      171754.61      44.119048      44.119048      88.238097          16004 
    225000   3802.2168      101291.22      1372.7886      102289.89      100530.14      101053.64     -524.23704      809.4798      -999.84063      7865.076       4947.2358      12812.312      171747.53      44.118442      44.118442      88.236885          16004 
    226000   3800.2355      102961.7       1379.1729      103539.85      102746.22      102599.04     -1399.503       1026.0993     -183.72677      7860.9775      4984.0613      12845.039      171707.41      44.115006      44.115006      88.230013          16004 
    227000   3788.3008      96749.167      1385.5585      96330.928      96463.226      97453.348      1243.8467     -1386.0699      117.97819      7836.2899      4989.8991      12826.189      172124.87      44.150729      44.150729      88.301457          16004 
    228000   3796.1135      97206.609      1391.9468      97352.764      96400.512      97866.551     -547.33902     -430.87572     -137.19088      7852.4509      4880.8033      12733.254      171978.72      44.138229      44.138229      88.276458          16004 
    229000   3798.222       96518.316      1398.3286      95090.237      97788.991      96675.719     -2593.7399      1280.5441      1531.8449      7856.8125      4886.2872      12743.1        172122.5       44.150526      44.150526      88.301052          16004 
    230000   3757.2865      97501.037      1404.7104      95990.122      97758.555      98754.435      1101.5383      740.86434     -1352.183       7772.1353      4930.4753      12702.611      172059.18      44.145112      44.145112      88.290224          16004 
    231000   3804.4125      101190.97      1411.0875      101119.82      101507.96      100945.14      670.81523     -953.72774      99.165132      7869.6178      4988.7492      12858.367      171827.24      44.125266      44.125266      88.250532          16004 
    232000   3770.5118      103411.07      1417.4665      103352.86      104081.07      102799.28      515.9609       1167.8753     -540.48218      7799.4926      5128.2628      12927.755      171805.96      44.123445      44.123445      88.246889          16004 
    233000   3822.8771      104842.62      1423.8459      104861.89      104888.03      104777.95     -543.50554     -110.60212      362.53097      7907.8127      4957.9656      12865.778      171605.9       44.106311      44.106311      88.212622          16004 
    234000   3758.7581      100192.94      1430.2239      98478.469      101416         100684.36      681.09572      43.002358      1306.6011      7775.1795      4982.6737      12757.853      171862.81      44.128311      44.128311      88.256622          16004 
    235000   3797.2401      94616.335      1436.6043      92719.959      95388.254      95740.791     -903.69853      647.83335      2181.6388      7854.7814      5047.2799      12902.061      172405.01      44.174668      44.174668      88.349336          16004 
    236000   3765.0839      101082.14      1442.9876      100153.48      101410.33      101682.62      1811.5014      378.48618      23.695207      7788.2647      4944.4466      12732.711      171795.53      44.122552      44.122552      88.245103          16004 
    237000   3836.3162      98882.017      1449.37        98698.022      99535.309      98412.719      734.84169     -1530.1913     -151.73353      7935.6122      4968.8897      12904.502      172109.05      44.149376      44.149376      88.298752          16004 
    238000   3845.9408      100318.65      1455.754       99592.526      101197.52      100165.91      1875.5773     -1049.8517      463.35252      7955.5212      5046.9205      13002.442      171994.26      44.139558      44.139558      88.279117          16004 
    239000   3823.7685      103487.75      1462.1413      104014.42      102203.52      104245.3       1486.0817     -687.28049     -1144.6361      7909.6566      4952.3116      12861.968      171733.78      44.117264      44.117264      88.234529          16004 
    240000   3829.6608      105014.55      1468.53        105509.09      105154.75      104379.83      2192.5776      1307.0059      391.8185       7921.8452      4971.2338      12893.079      171460.14      44.09382       44.09382       88.187641          16004 
    241000   3854.5601      101961.99      1474.9182      101698.34      102511.5       101676.15      901.02638      1806.303      -1090.6123      7973.3506      4927.8402      12901.191      171867.26      44.128692      44.128692      88.257383          16004 
    242000   3826.1858      98567.153      1481.3076      98017.534      99083.077      98600.848     -1234.8016      2544.6863     -449.96808      7914.657       5011.7074      12926.364      172043.26      44.14375       44.14375       88.2875            16004 
    243000   3827.0225      101187.27      1487.6934      101827.77      99570.99       102163.04     -98.874117      1004.4862     -1585.6525      7916.3878      4865.2143      12781.602      171680.44      44.112696      44.112696      88.225393          16004 
    244000   3817.5287      96770.155      1494.0807      95693.583      97927.397      96689.484      992.67099      737.07174      1205.4371      7896.7494      5043.5078      12940.257      172299.35      44.165642      44.165642      88.331284          16004 
    245000   3799.9006      98033.123      1500.4654      97770.669      96724.196      99604.504      2211.8056     -1404.7081     -1754.2088      7860.2847      4899.7208      12760.005      171995.15      44.139635      44.139635      88.27927           16004 
    246000   3811.8348      100067.05      1506.853       99714.517      100478.97      100007.65      1505.6211     -2755.3693     -659.73164      7884.9712      4985.9369      12870.908      171909.88      44.132339      44.132339      88.264678          16004 
    247000   3818.7116      103241.35      1513.2366      101747.64      104951.74      103024.68      654.99359     -76.613538     -289.68343      7899.1963      4921.297       12820.493      171644.99      44.10966       44.10966       88.21932           16004 
    248000   3809.78        100477.19      1519.6194      99864.314      100745.34      100821.91      1698.0197      107.25833     -1421.9278      7880.7208      5011.2178      12891.939      171947.52      44.13556       44.13556       88.271119          16004 
    249000   3822.8754      98688.228      1526.0034      98849.872      98595.151      98619.662     -1547.0321     -660.08357     -316.32044      7907.8093      4824.342       12732.151      171863.27      44.12835       44.12835       88.2567            16004 
    250000   3797.2023      96806.777      1532.3874      98054.098      95859.932      96506.302     -510.06583     -847.17332     -78.389772      7854.7032      4885.178       12739.881      172148.85      44.152779      44.152779      88.305557          16004 
    251000   3784.1197      95147.477      1538.769       93532.221      96042.851      95867.359     -1509.7348     -1327.6231      473.94759      7827.6412      4944.286       12771.927      172323.09      44.16767       44.16767       88.335341          16004 
    252000   3771.5225      96359.313      1545.1514      97834.335      96469.074      94774.529      1005.504      -374.19376     -1097.0241      7801.5833      5021.3718      12822.955      172125.17      44.150755      44.150755      88.301509          16004 
    253000   3778.7231      99773.554      1551.5331      100771.08      98144.888      100404.7      -560.1905       2543.4047      1258.1042      7816.4781      5022.0645      12838.543      171912.18      44.132536      44.132536      88.265072          16004 
    254000   3799.699       100059.83      1557.9134      99558.301      100555.9       100065.3      -2865.9859     -1594.9222      1657.2782      7859.8677      5002.0459      12861.914      171891.93      44.130803      44.130803      88.261607          16004 
    255000   3749.1888      102949.51      1564.2959      102869.76      102990.24      102988.53     -578.17337      670.19732     -833.38221      7755.385       4948.0815      12703.466      171582.79      44.104331      44.104331      88.208662          16004 
    256000   3782.9833      98585.809      1570.6784      98462.687      99669.825      97624.916      934.03308      324.02364     -509.06503      7825.2905      5099.0981      12924.389      172157.9       44.153553      44.153553      88.307106          16004 
    257000   3782.0554      97059.035      1577.0636      97125.944      97346.579      96704.583      224.48399     -1280.4906      1188.7581      7823.3711      4967.1451      12790.516      172083.35      44.147178      44.147178      88.294356          16004 
    258000   3806.6329      96722.296      1583.4465      96506.516      97110.796      96549.577     -2157.6002      1196.0388      853.1013       7874.2108      5054.5575      12928.768      172248.44      44.161292      44.161292      88.322583          16004 
    259000   3818.6638      101120.64      1589.8315      99329.083      103010.44      101022.4       1188.7326     -1261.7673     -2089.4318      7899.0974      4953.1486      12852.246      171912.95      44.132602      44.132602      88.265204          16004 
    260000   3809.8695      101399.98      1596.2171      102266.31      102477.32      99456.301     -72.201964      421.64578      1359.6123      7880.9059      5060.9398      12941.846      171909.16      44.132278      44.132278      88.264555          16004 
    261000   3819.7794      99727.289      1602.6038      100157.51      99328.57       99695.791     -962.56194     -897.49786     -207.597        7901.4051      4964.4062      12865.811      171910.06      44.132355      44.132355      88.26471           16004 
    262000   3816.4158      97428.899      1608.9884      99778.793      95794.691      96713.212      1214.4392     -3123.2606     -504.53896      7894.4473      5022.0559      12916.503      172239.71      44.160545      44.160545      88.321091          16004 
    263000   3808.9826      100771.22      1615.3722      100702.5       100175.47      101435.7       811.7952      -1663.1846      587.97134      7879.0714      4939.0249      12818.096      171769.31      44.120307      44.120307      88.240614          16004 
    264000   3801.7042      101671.92      1621.7534      102589.81      101167.07      101258.87      1623.4288      370.84747      2784.774       7864.0155      4986.0551      12850.071      171818.85      44.124548      44.124548      88.249097          16004 
    265000   3813.088       102681.52      1628.1349      101932.75      103153.82      102957.98      904.89739      1426.7264      767.98385      7887.5636      5117.8686      13005.432      171872.91      44.129175      44.129175      88.25835           16004 
    266000   3809.0289      102997.58      1634.5142      102691.47      103976.25      102325.02      201.14967     -3560.5462      766.76934      7879.1672      4996.4854      12875.653      171571.43      44.103358      44.103358      88.206717          16004 
    267000   3784.6797      101256.75      1640.895       101427.11      103099.2       99243.929     -1447.0619     -866.18147      1529.1894      7828.7995      4938.3136      12767.113      171815.71      44.124279      44.124279      88.248558          16004 
    268000   3840.0789      98388.76       1647.2788      98918.532      96634.927      99612.821     -618.67942      453.46203     -968.64374      7943.3957      4959.515       12902.911      172100.7       44.148662      44.148662      88.297324          16004 
    269000   3774.9966      101527.46      1653.6597      101155.93      102078.6       101347.85      2060.7818     -452.00543      2544.987       7808.7696      4998.6529      12807.423      171743.86      44.118128      44.118128      88.236256          16004 
    270000   3816.3184      103597.72      1660.0429      103376.27      104190.07      103226.82     -1072.9305      526.24945     -78.024839      7894.2459      5109.2588      13003.505      171719.09      44.116007      44.116007      88.232013          16004 
    271000   3773.8275      104576.45      1666.4265      104145.99      104424.04      105159.32     -2590.1678     -236.9331       1847.8951      7806.3512      5068.0728      12874.424      171602.72      44.106039      44.106039      88.212077          16004 
    272000   3796.7084      99897.58       1672.8108      99906.26       100390.18      99396.302      1784.7723      602.58121      1702.1189      7853.6815      5029.7843      12883.466      171962.52      44.136844      44.136844      88.273687          16004 
    273000   3820.2241      97321.635      1679.1978      97254.897      97278.794      97431.213      1146.2793      1384.6968      916.56311      7902.325       4971.8189      12874.144      172073.9       44.146371      44.146371      88.292741          16004 
    274000   3764.8421      97254.242      1685.587       97388.054      98081.2        96293.472      3183.9081     -1725.0649      2481.1905      7787.7646      5019.3421      12807.107      172091.26      44.147855      44.147855      88.29571           16004 
    275000   3753.0026      94474.365      1691.9729      94906.543      94399.787      94116.765     -1150.5752      691.63242      1651.9805      7763.2739      5093.6924      12856.966      172410.99      44.175179      44.175179      88.350358          16004 
    276000   3800.023       98521.34       1698.3583      99489.071      97648.712      98426.238     -1255.0108     -2560.1778      707.4188       7860.5379      4894.4623      12755          171887.47      44.130421      44.130421      88.260843          16004 
    277000   3832.1193      98463.915      1704.7404      97468.084      99127.754      98795.907     -1058.5119     -1551.655      -1110.0484      7926.9307      4984.2095      12911.14       172172.02      44.154759      44.154759      88.309519          16004 
    278000   3813.569       100937.89      1711.1229      103594.44      98513.733      100705.49     -1691.8293     -3401.7624     -1356.4026      7888.5585      4969.7658      12858.324      171887.67      44.130439      44.130439      88.260877          16004 
    279000   3808.7919      99427.726      1717.5075      100890.6       97696.703      99695.874      350.53733     -159.7985       2419.0743      7878.6768      4886.9863      12765.663      171957.76      44.136436      44.136436      88.272872          16004 
    280000   3801.3142      94668.61       1723.8887      94086.572      95375.139      94544.12       1375.878       589.63191      1109.0328      7863.2089      5067.6698      12930.879      172380.42      44.172568      44.172568      88.345135          16004 
    281000   3754.6311      98780.082      1730.2643      98233.615      97038.954      101067.68     -132.77071     -807.80281     -237.05068      7766.6426      5096.7942      12863.437      172117.59      44.150106      44.150106      88.300212          16004 
    282000   3792.5593      98637.388      1736.6416      99999.714      97721.976      98190.475      1882.0065     -216.96283     -977.3905       7845.099       4941.9741      12787.073      171914.28      44.132716      44.132716      88.265431          16004 
    283000   3785.7699      99974.193      1743.0228      100927.64      99268.884      99726.056     -1270.8841      1800.8882     -604.58873      7831.0547      4947.8788      12778.933      171914.27      44.132715      44.132715      88.265429          16004 
    284000   3749.6269      100867.65      1749.4008      100167.48      101406.67      101028.8       2578.3944     -1440.3042     -3542.115       7756.2912      5101.6922      12857.983      171843.48      44.126656      44.126656      88.253313          16004 
    285000   3770.9174      102585.69      1755.7848      102183.02      102369.15      103204.89     -340.7473      -333.43284      1122.3835      7800.3316      5015.7525      12816.084      171778.28      44.121075      44.121075      88.24215           16004 
    286000   3816.3301      97832.125      1762.1659      98283.241      97727.737      97485.397      1516.8551     -1809.9921      1317.0869      7894.2699      4961.3392      12855.609      172095.73      44.148237      44.148237      88.296475          16004 
[...]
   3930000   3433.7263      101961.61      6374.6038      103942.41      99169.514      102772.91     -1229.6678     -366.38146     -2695.0286      7102.8348      12244.464      19347.299      193249.9       45.522569      45.522569      93.253634          16004 
   3931000   3429.1126      103992.2       6381.5852      103349.36      102881.2       105746.05      57.659083      1220.7011     -491.35739      7093.2913      12277.273      19370.564      192878.47      45.493385      45.493385      93.193851          16004 
   3932000   3430.5929      97824.358      6388.5616      98935.346      97301.014      97236.714      2477.9199     -335.10782      1655.6617      7096.3533      12211.79       19308.143      193869.19      45.571144      45.571144      93.353142          16004 
   3933000   3456.8873      100102.43      6395.5339      98015.416      100276.05      102015.81      1215.9817     -1287.5886      195.47818      7150.7446      12163.034      19313.778      193761.08      45.562671      45.562671      93.335786          16004 
   3934000   3423.3297      97572.955      6402.5132      98457.827      98471.046      95789.991     -2880.0329      1130.4017      1617.0524      7081.329       12228.314      19309.644      193817.38      45.567084      45.567084      93.344824          16004 
   3935000   3421.8163      98297.281      6409.4857      98396.033      99278.827      97216.983     -1459.416      -2652.0635     -2388.6435      7078.1984      12218.397      19296.595      194025.75      45.583408      45.583408      93.378264          16004 
   3936000   3445.5334      100879.66      6416.4581      100437.33      100506.51      101695.14      153.21647      885.47775      891.59583      7127.2584      12236.093      19363.351      192968.2       45.500438      45.500438      93.2083            16004 
   3937000   3406.4588      100099.8       6423.44        100379.83      100025.68      99893.878     -1083.7692      2059.106      -6.8106279      7046.4308      12279.323      19325.754      193564         45.547219      45.547219      93.304131          16004 
   3938000   3425.3901      97777.46       6430.4114      97996.751      98816.343      96519.287     -467.51351     -299.77383     -145.92497      7085.591       12237.995      19323.586      193593.43      45.549527      45.549527      93.308858          16004 
   3939000   3433.9455      103613.04      6437.38        101650.57      101497.77      107690.78     -120.22982     -1730.3622     -1160.5193      7103.2884      12244.166      19347.455      193209.1       45.519365      45.519365      93.247071          16004 
   3940000   3448.5189      102635.56      6444.3529      103250.83      103745.64      100910.22      1451.8243     -825.29551     -642.65164      7133.4341      12218.973      19352.407      193135.49      45.513583      45.513583      93.235227          16004 
   3941000   3432.1081      97361.655      6451.3159      99936.843      92732.996      99415.126     -1105.2982      2044.0612      2906.5511      7099.4876      12173.872      19273.36       194400.84      45.612763      45.612763      93.438399          16004 
   3942000   3429.3921      98575.709      6458.2818      100607.08      97960.224      97159.826     -339.19961      782.51078      1348.7002      7093.8694      12217.869      19311.738      193780.05      45.564158      45.564158      93.338831          16004 
   3943000   3470.8456      103034.32      6465.2622      104220.66      102987.08      101895.24     -775.8623      -2425.7023     -2953.1194      7179.618       12169.639      19349.257      193180.54      45.517122      45.517122      93.242476          16004 
   3944000   3427.7695      97491.71       6472.2383      99035.19       99106.586      94333.354     -201.10914     -696.76405      1702.2054      7090.5129      12204.004      19294.517      194065.91      45.586552      45.586552      93.384705          16004 
   3945000   3415.2563      97816.91       6479.2106      96188.288      96906.151      100356.29      1876.5515      660.3547       1380.0345      7064.6287      12236.94       19301.569      193954.24      45.577807      45.577807      93.36679           16004 
   3946000   3434.633       99906.081      6486.188       100987.18      97729.953      101001.11      1717.2644      353.79966     -729.56318      7104.7104      12231.371      19336.081      193391.57      45.53369       45.53369       93.276417          16004 
   3947000   3418.0484      98877.599      6493.1632      99936.647      101132.55      95563.596     -2337.0996     -308.61852     -1237.5666      7070.4045      12251.768      19322.172      193614.11      45.551149      45.551149      93.312181          16004 
   3948000   3443.1526      101213.78      6500.1392      103483.88      101961.96      98195.482     -1759.8192      1059.7579     -7.8284187      7122.3336      12217.299      19339.633      193345.04      45.530038      45.530038      93.268935          16004 
   3949000   3454.8155      100167.34      6507.1138      100236.12      99928.599      100337.31      653.24986      252.19345      1162.314       7146.4589      12163.823      19310.282      193814.19      45.566834      45.566834      93.344313          16004 
   3950000   3434.4263      99486.871      6514.0888      98221.45       99926.794      100312.37     -1314.0003      2210.2814     -2086.3673      7104.283       12194.017      19298.3        194005.84      45.581848      45.581848      93.37507           16004 
   3951000   3430.2038      97430.939      6521.0659      95925.307      96944.166      99423.346     -674.63701     -645.14257      79.322429      7095.5485      12195.575      19291.124      194107.83      45.589834      45.589834      93.391429          16004 
   3952000   3451.1402      100797         6528.0352      101432         100616.32      100342.68     -1306.458      -621.77339      862.55926      7138.8564      12168.57       19307.426      193841.92      45.569007      45.569007      93.348764          16004 
   3953000   3446.7161      104375.99      6535.0073      103617.77      104789.59      104720.61     -609.90409      3068.1672     -792.90203      7129.7049      12202.112      19331.817      193442.19      45.537662      45.537662      93.284553          16004 
   3954000   3459.9418      100718.88      6541.978       100211.62      102006.54      99938.489      372.04021      1855.974       876.56103      7157.063       12151.408      19308.471      193812.67      45.566715      45.566715      93.344069          16004 
   3955000   3456.9518      103883.1       6548.9523      102660.16      101078.76      107910.39      3329.0853     -693.96914      1389.9781      7150.8779      12196.661      19347.538      193194.57      45.518224      45.518224      93.244734          16004 
   3956000   3427.2137      98776.279      6555.9234      100756.7       98953.595      96618.54       640.64084     -575.96343     -739.57518      7089.3632      12215.694      19305.058      193876.7       45.571732      45.571732      93.354346          16004 
   3957000   3446.6326      103823.73      6562.8901      100254.59      103651.42      107565.18      1836.9374     -2673.4088     -1386.6083      7129.5322      12201.681      19331.214      193440.19      45.537505      45.537505      93.284233          16004 
   3958000   3469.5018      102147.22      6569.8532      99926.884      103372.49      103142.29      1369.2439     -2258.5932     -2157.3969      7176.8383      12161.665      19338.504      193326.57      45.528588      45.528588      93.265964          16004 
   3959000   3454.2118      100592.61      6576.8206      101347.72      98634.94       101795.19     -1159.7188     -187.33787      733.29706      7145.2102      12178.24       19323.45       193571.92      45.547839      45.547839      93.305402          16004 
   3960000   3456.1304      101678.67      6583.7896      100053.43      99099.428      105883.15      2056.7461     -2.3842765      1324.4289      7149.1789      12169.505      19318.684      193641.96      45.553332      45.553332      93.316654          16004 
   3961000   3431.7456      98085.92       6590.7553      102812.29      96914.543      94530.922      1393.1438      2053.2482     -2135.5763      7098.7377      12189.783      19288.52       194122.22      45.590961      45.590961      93.393738          16004 
   3962000   3453.3612      101399.43      6597.7239      99930.335      101395.91      102872.04      851.62435     -1404.1758      624.40818      7143.4506      12178.559      19322.01       193582.5       45.54867       45.54867       93.307103          16004 
   3963000   3448.0569      97287.761      6604.7002      101912.7       94503.6        95446.983      2061.6963      416.11817      502.37515      7132.4785      12148.732      19281.21       194237.86      45.600012      45.600012      93.412278          16004 
   3964000   3450.0073      100285.23      6611.6712      101783.33      99027.599      100044.75      2085.5452      663.43954      271.68018      7136.513       12164.642      19301.155      193918.22      45.574985      45.574985      93.36101           16004 
   3965000   3459.3897      104953.7       6618.6516      106275.01      105134.24      103451.85     -1021.0771      770.73635     -2007.3189      7155.921       12203.092      19359.013      192991.64      45.50228       45.50228       93.212073          16004 
   3966000   3447.4442      98123.782      6625.6319      97949.198      98778.383      97643.763      911.29768     -1815.7624     -2535.8938      7131.211       12173.751      19304.962      193833.8       45.568371      45.568371      93.347461          16004 
   3967000   3463.0953      104514.02      6632.6147      103977.09      105271.9       104293.06      753.25296     -1090.5561     -1762.4938      7163.5861      12185.466      19349.052      193128.51      45.513035      45.513035      93.234104          16004 
   3968000   3457.6106      101791.11      6639.5942      100380.84      104760         100232.49     -1128.9477     -4621.5477     -975.05692      7152.2408      12186.012      19338.252      193292.79      45.525936      45.525936      93.260532          16004 
   3969000   3429.4019      101571.78      6646.5714      102552.76      101899.01      100263.56     -307.93812     -250.62604     -666.39826      7093.8896      12235.304      19329.194      193434.45      45.537055      45.537055      93.28331           16004 
   3970000   3465.3619      100543.45      6653.5445      99585.514      99853.976      102190.87      2389.0331      995.57535     -512.60655      7168.2746      12148.855      19317.129      193631         45.552473      45.552473      93.314894          16004 
   3971000   3437.5598      103254.56      6660.5188      101135.35      102459.2       106169.14      2716.2021     -2115.8202     -2053.3181      7110.7646      12215.641      19326.406      193481.23      45.540726      45.540726      93.290829          16004 
   3972000   3455.7192      98671.108      6667.4977      98877.533      98707.38       98428.411      1396.7861     -809.24097     -1869.9875      7148.3284      12134.844      19283.172      194175.33      45.595118      45.595118      93.402253          16004 
   3973000   3463.234       102031.29      6674.4638      101610.96      99552.362      104930.56      1957.431       5086.5751      1240.2357      7163.873       12165.331      19329.204      193432.53      45.536904      45.536904      93.283001          16004 
   3974000   3429.8528      100219.52      6681.4384      101002.59      97652.247      102003.73     -1819.4513      2313.7355     -1702.1524      7094.8223      12208.024      19302.846      193863.06      45.570663      45.570663      93.352157          16004 
   3975000   3439.9363      101919.26      6688.413       100079.15      101917.79      103760.86      484.17557     -1553.7392      229.55599      7115.6807      12224.39       19340.071      193267.55      45.523954      45.523954      93.256473          16004 
   3976000   3464.8466      99663.831      6695.3796      100891.39      95612.38       102487.73     -3562.7843      1941.1688     -143.76338      7167.2087      12141.313      19308.522      193760.32      45.562611      45.562611      93.335663          16004 
   3977000   3458.7522      102852.79      6702.3553      102519.54      100775.47      105263.35      1688.0069      1609.3957     -1540.034       7154.6022      12172.557      19327.16       193441.28      45.537591      45.537591      93.284407          16004 
   3978000   3452.339       99235.167      6709.3251      100911.09      98670.554      98123.855     -1709.1314     -978.84606      57.596117      7141.3362      12145.631      19286.967      194072.54      45.587072      45.587072      93.38577           16004 
   3979000   3465.7904      97699.559      6716.3004      96869.701      96295.273      99933.705     -2987.8108      808.92387     -2288.4405      7169.1611      12107.261      19276.422      194241.1       45.600265      45.600265      93.412797          16004 
   3980000   3445.4207      99077.422      6723.2771      100972.68      98411.39       97848.2        56.212535     -399.57777     -1343.7337      7127.0253      12152.901      19279.926      194182.33      45.595666      45.595666      93.403376          16004 
   3981000   3429.5089      102562.22      6730.248       102386.28      101182.42      104117.95     -2979.6547     -998.03865      123.44862      7094.111       12207.906      19302.017      193820.52      45.56733       45.56733       93.345329          16004 
   3982000   3467.8076      99205.198      6737.2155      101894.58      98628.864      97092.151     -1055.229       145.80015      3804.6272      7173.3338      12128.299      19301.633      193813.79      45.566802      45.566802      93.344248          16004 
   3983000   3484.0166      102065.19      6744.1915      99871.168      106974.25      99350.156     -934.78871      3586.8365      1456.9754      7206.863       12118.235      19325.098      193428.65      45.5366        45.5366        93.282378          16004 
   3984000   3432.8115      97091.499      6751.1702      98850.028      97784.621      94639.847      1618.2263      485.95         327.68502      7100.9426      12158.779      19259.721      194459.82      45.617375      45.617375      93.447846          16004 
   3985000   3437.8855      100657.35      6758.1335      97503.308      102331.14      102137.6       27.685497     -423.94471      104.31729      7111.4384      12203.945      19315.383      193563.3       45.547163      45.547163      93.304017          16004 
   3986000   3424.7505      100419.17      6765.1029      101271.69      101657.54      98328.288      1572.5801      1156.8804      4264.3888      7084.268       12241.662      19325.93       193383.51      45.533057      45.533057      93.27512           16004 
   3987000   3421.0161      100689.28      6772.0758      103249.88      99681.696      99136.263      346.87953      1023.9271     -713.88213      7076.5431      12234.143      19310.686      193618.14      45.551465      45.551465      93.312829          16004 
   3988000   3420.0679      99924.234      6779.0396      98000.001      100103.19      101669.51     -1465.7914     -1036.2463     -802.26962      7074.5819      12231.984      19306.566      193681.66      45.556446      45.556446      93.323032          16004 
   3989000   3447.3942      101780.34      6786.0084      102594.46      100485.84      102260.73      1818.6952     -461.41978      3316.0105      7131.1076      12213.674      19344.781      193068.52      45.508322      45.508322      93.22445           16004 
   3990000   3457.5922      96404.465      6792.984       97394.221      95734.396      96084.78       495.06724     -394.90496     -25.263346      7152.2027      12111.979      19264.182      194380.07      45.611138      45.611138      93.43507           16004 
   3991000   3436.4687      97685.487      6799.9496      98097.176      97805.029      97154.255     -1727.841      -1065.4984     -701.73968      7108.5076      12172.587      19281.094      194093.82      45.588738      45.588738      93.389183          16004 
   3992000   3446.5958      96995.141      6806.9234      99336.623      93745.844      97902.957     -1389.5858     -1033.2344     -1750.7458      7129.4561      12151.57       19281.026      194106.23      45.589709      45.589709      93.391173          16004 
   3993000   3446.5895      102095         6813.9026      102264.73      100378.9       103641.36     -180.61763      1599.9073     -261.25419      7129.443       12188.001      19317.444      193519.31      45.543713      45.543713      93.296949          16004 
   3994000   3431.2713      100436.61      6820.873       101344.14      100387.04      99578.635      1414.9738      786.75241      2677.4203      7097.7567      12223.697      19321.454      193456.07      45.538751      45.538751      93.286785          16004 
   3995000   3420.8885      97516.649      6827.8445      98501.403      95143.656      98904.888      379.79858      2706.4848     -1010.1463      7076.2792      12202.385      19278.665      194137.48      45.592156      45.592156      93.396184          16004 
   3996000   3449.6063      99987.482      6834.8245      102624.64      99549.199      97788.605      2329.1249      944.03801      247.76944      7135.6835      12190.181      19325.865      193367.8       45.531824      45.531824      93.272595          16004 
   3997000   3466.6405      105308.78      6841.8018      104480.28      103338.06      108108        -2161.1662      910.73797     -2123.8194      7170.9196      12173.877      19344.796      193064.28      45.507989      45.507989      93.223767          16004 
   3998000   3434.9213      101823.21      6848.7738      101363.11      103182.36      100924.15      647.91121      1507.74        247.32568      7105.3069      12213.66       19318.967      193474.06      45.540162      45.540162      93.289676          16004 
   3999000   3441.2604      99806.419      6855.7528      101810.27      97005.61       100603.38      292.17401      63.728827     -2611.3728      7118.4196      12180.6        19299.019      193775.42      45.563796      45.563796      93.338089          16004 
   4000000   3417.7633      97087.412      6862.7254      97385.23       93149.829      100727.18     -2421.0161      986.62168     -315.81004      7069.8145      12185.266      19255.081      194482.22      45.619127      45.619127      93.451435          16004 
Loop time of 6862.73 on 8 procs for 1000000 steps with 16004 atoms

Performance: 6.295 ns/day, 3.813 hours/ns, 145.715 timesteps/s
61.4% CPU use with 1 MPI tasks x 8 OpenMP threads

MPI task timing breakdown:
Section |  min time  |  avg time  |  max time  |%varavg| %total
---------------------------------------------------------------
Pair    | 6551.2     | 6551.2     | 6551.2     |   0.0 | 95.46
Neigh   | 11.329     | 11.329     | 11.329     |   0.0 |  0.17
Comm    | 49.714     | 49.714     | 49.714     |   0.0 |  0.72
Output  | 1.4203     | 1.4203     | 1.4203     |   0.0 |  0.02
Modify  | 221.65     | 221.65     | 221.65     |   0.0 |  3.23
Other   |            | 27.44      |            |       |  0.40

Nlocal:          16004 ave       16004 max       16004 min
Histogram: 1 0 0 0 0 0 0 0 0 0
Nghost:          12125 ave       12125 max       12125 min
Histogram: 1 0 0 0 0 0 0 0 0 0
Neighs:              0 ave           0 max           0 min
Histogram: 1 0 0 0 0 0 0 0 0 0
FullNghs:  1.27379e+06 ave 1.27379e+06 max 1.27379e+06 min
Histogram: 1 0 0 0 0 0 0 0 0 0

Total # of neighbors = 1273786
Ave neighs/atom = 79.591727
Neighbor list builds = 31630
Dangerous builds = 0
Total wall time: 7:10:17
