# vtk DataFile Version 3.0
# Voxel grid data written by Ovito 3.4.4
ASCII
DATASET STRUCTURED_POINTS
DIMENSIONS 40 40 40
ORIGIN 4.5917604434 10.2375458414 -0.5211248977
SPACING 4.1494264669 3.867137197 4.405070734
POINT_DATA 64000

SCALARS Unity double 1
LOOKUP_TABLE default
7.0 3.0 4.0 4.0 4.0 6.0 5.0 3.0 1.0 6.0 7.0 6.0 2.0 4.0 4.0 4.0 4.0 7.0 3.0 2.0 6.0 7.0 5.0 2.0 3.0 4.0 0.0 2.0 5.0 7.0 4.0 3.0 4.0 3.0 6.0 6.0 5.0 5.0 1.0 4.0 
4.0 3.0 11.0 5.0 1.0 3.0 5.0 4.0 5.0 3.0 1.0 3.0 3.0 2.0 5.0 4.0 5.0 3.0 6.0 4.0 8.0 1.0 3.0 3.0 3.0 3.0 3.0 1.0 2.0 7.0 4.0 7.0 4.0 1.0 3.0 4.0 9.0 3.0 4.0 3.0 
7.0 3.0 3.0 4.0 3.0 6.0 2.0 1.0 3.0 3.0 2.0 4.0 4.0 3.0 5.0 4.0 2.0 5.0 4.0 6.0 8.0 5.0 9.0 5.0 4.0 4.0 2.0 1.0 3.0 3.0 3.0 4.0 8.0 3.0 5.0 3.0 4.0 8.0 6.0 3.0 
5.0 2.0 5.0 3.0 4.0 6.0 5.0 4.0 3.0 3.0 3.0 3.0 4.0 2.0 8.0 7.0 5.0 1.0 0.0 4.0 6.0 5.0 5.0 1.0 2.0 2.0 5.0 6.0 6.0 5.0 4.0 3.0 5.0 1.0 3.0 7.0 2.0 4.0 4.0 5.0 
4.0 3.0 7.0 3.0 4.0 3.0 4.0 4.0 7.0 3.0 3.0 3.0 3.0 2.0 1.0 4.0 2.0 2.0 2.0 3.0 3.0 2.0 5.0 5.0 3.0 4.0 7.0 3.0 5.0 5.0 6.0 2.0 3.0 2.0 3.0 5.0 4.0 6.0 2.0 3.0 
2.0 4.0 5.0 5.0 2.0 2.0 2.0 5.0 3.0 4.0 7.0 3.0 4.0 3.0 2.0 7.0 3.0 1.0 3.0 3.0 3.0 5.0 3.0 4.0 5.0 6.0 3.0 4.0 3.0 3.0 4.0 3.0 5.0 2.0 3.0 2.0 4.0 4.0 5.0 5.0 
4.0 6.0 3.0 7.0 5.0 4.0 5.0 6.0 5.0 1.0 5.0 5.0 6.0 5.0 6.0 3.0 4.0 6.0 4.0 7.0 4.0 3.0 4.0 6.0 5.0 6.0 5.0 7.0 7.0 3.0 2.0 4.0 2.0 4.0 4.0 3.0 3.0 3.0 3.0 5.0 
6.0 6.0 5.0 4.0 3.0 6.0 7.0 6.0 7.0 4.0 4.0 5.0 3.0 3.0 3.0 2.0 3.0 2.0 5.0 6.0 6.0 3.0 4.0 3.0 5.0 5.0 4.0 1.0 3.0 5.0 3.0 5.0 5.0 8.0 6.0 7.0 3.0 2.0 3.0 6.0 
2.0 5.0 1.0 3.0 3.0 3.0 3.0 4.0 6.0 4.0 3.0 1.0 3.0 1.0 4.0 0.0 4.0 4.0 6.0 3.0 4.0 5.0 3.0 3.0 5.0 3.0 7.0 5.0 4.0 2.0 5.0 4.0 3.0 3.0 3.0 5.0 5.0 6.0 1.0 1.0 
5.0 2.0 3.0 4.0 7.0 4.0 5.0 4.0 3.0 5.0 2.0 4.0 2.0 0.0 5.0 4.0 3.0 3.0 3.0 1.0 1.0 5.0 4.0 2.0 3.0 5.0 2.0 5.0 1.0 5.0 4.0 4.0 5.0 2.0 4.0 1.0 4.0 8.0 3.0 3.0 
3.0 2.0 1.0 2.0 4.0 4.0 3.0 5.0 4.0 2.0 6.0 6.0 9.0 4.0 3.0 4.0 3.0 3.0 1.0 4.0 6.0 7.0 2.0 5.0 5.0 1.0 10.0 6.0 5.0 3.0 4.0 2.0 2.0 3.0 6.0 5.0 3.0 3.0 3.0 2.0 
2.0 3.0 3.0 2.0 5.0 4.0 6.0 4.0 2.0 6.0 4.0 3.0 6.0 2.0 4.0 2.0 3.0 6.0 5.0 3.0 3.0 5.0 6.0 4.0 5.0 2.0 5.0 2.0 10.0 2.0 1.0 3.0 5.0 4.0 5.0 4.0 5.0 3.0 2.0 4.0 
4.0 5.0 3.0 5.0 4.0 3.0 5.0 6.0 2.0 8.0 5.0 5.0 5.0 6.0 5.0 3.0 6.0 4.0 3.0 4.0 1.0 4.0 5.0 1.0 2.0 3.0 5.0 4.0 3.0 1.0 2.0 1.0 0.0 3.0 4.0 2.0 5.0 3.0 4.0 2.0 
2.0 3.0 4.0 7.0 2.0 4.0 2.0 3.0 1.0 7.0 6.0 5.0 5.0 7.0 4.0 4.0 3.0 5.0 3.0 4.0 5.0 3.0 5.0 3.0 6.0 4.0 3.0 2.0 4.0 1.0 5.0 5.0 5.0 6.0 3.0 6.0 5.0 5.0 6.0 4.0 
3.0 3.0 5.0 4.0 5.0 3.0 3.0 7.0 6.0 3.0 0.0 7.0 1.0 5.0 5.0 4.0 5.0 3.0 3.0 3.0 2.0 6.0 3.0 6.0 1.0 2.0 2.0 3.0 4.0 8.0 4.0 3.0 5.0 1.0 2.0 3.0 6.0 4.0 2.0 3.0 
4.0 3.0 3.0 2.0 5.0 6.0 1.0 5.0 3.0 7.0 8.0 5.0 4.0 1.0 4.0 4.0 3.0 4.0 3.0 3.0 4.0 4.0 3.0 2.0 3.0 6.0 1.0 5.0 1.0 5.0 3.0 4.0 4.0 2.0 4.0 6.0 2.0 7.0 5.0 3.0 
4.0 3.0 3.0 7.0 5.0 6.0 5.0 5.0 5.0 2.0 3.0 4.0 8.0 1.0 3.0 4.0 3.0 4.0 5.0 3.0 2.0 3.0 3.0 4.0 7.0 2.0 2.0 4.0 3.0 4.0 2.0 3.0 3.0 3.0 4.0 3.0 3.0 3.0 5.0 3.0 
2.0 3.0 5.0 2.0 7.0 5.0 5.0 4.0 6.0 5.0 4.0 3.0 2.0 4.0 3.0 5.0 5.0 2.0 5.0 8.0 2.0 4.0 4.0 5.0 6.0 4.0 3.0 1.0 4.0 2.0 5.0 4.0 6.0 2.0 1.0 2.0 5.0 4.0 4.0 5.0 
4.0 5.0 4.0 5.0 3.0 1.0 4.0 3.0 6.0 3.0 5.0 3.0 4.0 6.0 6.0 5.0 3.0 4.0 4.0 6.0 6.0 3.0 2.0 8.0 5.0 3.0 6.0 4.0 6.0 3.0 3.0 2.0 3.0 2.0 2.0 3.0 4.0 7.0 3.0 2.0 
3.0 2.0 4.0 4.0 3.0 5.0 2.0 5.0 4.0 5.0 3.0 4.0 5.0 1.0 2.0 3.0 11.0 4.0 3.0 1.0 3.0 5.0 4.0 4.0 2.0 2.0 2.0 3.0 4.0 4.0 4.0 5.0 3.0 5.0 7.0 10.0 4.0 0.0 3.0 7.0 
1.0 2.0 5.0 3.0 7.0 6.0 3.0 2.0 7.0 5.0 1.0 6.0 6.0 3.0 3.0 5.0 6.0 2.0 3.0 4.0 6.0 4.0 5.0 6.0 4.0 2.0 2.0 3.0 7.0 8.0 5.0 5.0 2.0 4.0 8.0 4.0 2.0 4.0 7.0 1.0 
5.0 3.0 4.0 4.0 2.0 2.0 2.0 6.0 5.0 5.0 6.0 2.0 2.0 4.0 7.0 5.0 3.0 6.0 4.0 2.0 3.0 6.0 2.0 6.0 4.0 3.0 6.0 3.0 6.0 6.0 6.0 5.0 5.0 4.0 3.0 4.0 3.0 3.0 5.0 3.0 
3.0 4.0 2.0 4.0 5.0 2.0 4.0 4.0 4.0 9.0 2.0 6.0 4.0 4.0 6.0 3.0 4.0 9.0 2.0 0.0 6.0 5.0 3.0 2.0 3.0 4.0 1.0 2.0 4.0 3.0 4.0 7.0 4.0 3.0 3.0 3.0 3.0 3.0 3.0 5.0 
1.0 1.0 4.0 5.0 2.0 6.0 7.0 5.0 4.0 2.0 2.0 2.0 3.0 5.0 2.0 3.0 5.0 4.0 3.0 3.0 4.0 9.0 5.0 5.0 2.0 4.0 3.0 5.0 2.0 3.0 7.0 5.0 3.0 8.0 8.0 6.0 10.0 2.0 1.0 2.0 
1.0 6.0 5.0 3.0 6.0 2.0 4.0 4.0 4.0 4.0 2.0 5.0 3.0 4.0 4.0 1.0 0.0 4.0 4.0 4.0 6.0 4.0 3.0 6.0 4.0 5.0 4.0 3.0 2.0 6.0 4.0 4.0 4.0 4.0 6.0 4.0 1.0 8.0 5.0 5.0 
3.0 3.0 2.0 2.0 4.0 4.0 3.0 8.0 2.0 5.0 4.0 5.0 4.0 4.0 5.0 7.0 7.0 2.0 6.0 7.0 8.0 2.0 6.0 6.0 1.0 4.0 3.0 4.0 2.0 7.0 5.0 5.0 4.0 5.0 2.0 6.0 6.0 4.0 4.0 4.0 
5.0 2.0 4.0 3.0 6.0 5.0 2.0 7.0 3.0 3.0 6.0 6.0 3.0 3.0 5.0 5.0 2.0 3.0 3.0 3.0 0.0 3.0 8.0 4.0 4.0 2.0 4.0 7.0 5.0 3.0 1.0 7.0 1.0 3.0 2.0 5.0 2.0 2.0 5.0 5.0 
3.0 6.0 3.0 5.0 5.0 10.0 5.0 4.0 1.0 3.0 3.0 2.0 5.0 4.0 1.0 3.0 2.0 7.0 5.0 2.0 4.0 5.0 1.0 0.0 7.0 4.0 4.0 4.0 4.0 5.0 5.0 4.0 3.0 8.0 5.0 6.0 7.0 3.0 3.0 1.0 
3.0 3.0 4.0 4.0 3.0 8.0 5.0 1.0 4.0 3.0 4.0 4.0 2.0 2.0 7.0 3.0 6.0 5.0 1.0 4.0 3.0 4.0 2.0 2.0 5.0 4.0 9.0 7.0 4.0 3.0 5.0 6.0 5.0 5.0 5.0 4.0 4.0 4.0 4.0 4.0 
4.0 4.0 4.0 5.0 2.0 2.0 4.0 6.0 5.0 2.0 4.0 5.0 5.0 2.0 5.0 4.0 7.0 5.0 6.0 3.0 3.0 3.0 5.0 3.0 4.0 7.0 5.0 4.0 2.0 4.0 1.0 6.0 3.0 4.0 3.0 5.0 5.0 2.0 7.0 5.0 
4.0 0.0 5.0 5.0 2.0 2.0 5.0 6.0 6.0 5.0 1.0 3.0 5.0 3.0 5.0 4.0 4.0 4.0 4.0 6.0 5.0 4.0 4.0 7.0 2.0 4.0 2.0 4.0 5.0 3.0 3.0 4.0 3.0 5.0 3.0 4.0 3.0 4.0 7.0 3.0 
2.0 5.0 9.0 5.0 5.0 2.0 8.0 3.0 4.0 3.0 4.0 3.0 4.0 2.0 5.0 4.0 6.0 3.0 5.0 7.0 6.0 6.0 5.0 2.0 6.0 6.0 2.0 3.0 2.0 3.0 1.0 5.0 5.0 5.0 4.0 5.0 4.0 6.0 5.0 3.0 
5.0 6.0 4.0 6.0 3.0 3.0 4.0 4.0 4.0 5.0 4.0 5.0 6.0 2.0 3.0 3.0 1.0 10.0 5.0 5.0 2.0 4.0 3.0 3.0 5.0 3.0 4.0 6.0 6.0 5.0 1.0 6.0 2.0 7.0 5.0 4.0 4.0 1.0 2.0 5.0 
5.0 4.0 6.0 4.0 6.0 5.0 4.0 5.0 7.0 4.0 3.0 2.0 1.0 1.0 4.0 7.0 5.0 5.0 2.0 4.0 4.0 4.0 3.0 7.0 4.0 4.0 3.0 6.0 5.0 4.0 6.0 3.0 4.0 3.0 5.0 4.0 1.0 3.0 2.0 3.0 
4.0 1.0 1.0 2.0 6.0 6.0 10.0 1.0 5.0 3.0 5.0 5.0 4.0 8.0 1.0 6.0 1.0 2.0 6.0 1.0 2.0 5.0 5.0 1.0 3.0 5.0 3.0 2.0 5.0 2.0 3.0 4.0 3.0 4.0 2.0 7.0 5.0 5.0 6.0 4.0 
3.0 3.0 5.0 6.0 2.0 5.0 2.0 4.0 2.0 6.0 7.0 5.0 8.0 5.0 5.0 7.0 5.0 7.0 3.0 3.0 5.0 2.0 6.0 6.0 3.0 3.0 5.0 3.0 4.0 6.0 6.0 6.0 2.0 1.0 4.0 5.0 2.0 3.0 6.0 4.0 
3.0 8.0 4.0 1.0 6.0 3.0 2.0 6.0 2.0 2.0 6.0 1.0 0.0 4.0 2.0 5.0 7.0 4.0 7.0 2.0 4.0 2.0 5.0 4.0 5.0 3.0 1.0 4.0 3.0 2.0 2.0 3.0 4.0 6.0 4.0 3.0 3.0 4.0 7.0 3.0 
4.0 4.0 3.0 7.0 3.0 5.0 4.0 7.0 3.0 4.0 1.0 4.0 5.0 3.0 3.0 5.0 3.0 5.0 3.0 4.0 4.0 4.0 6.0 4.0 3.0 9.0 7.0 6.0 3.0 5.0 5.0 3.0 0.0 4.0 1.0 7.0 4.0 4.0 4.0 5.0 
5.0 6.0 5.0 3.0 5.0 3.0 4.0 1.0 3.0 4.0 3.0 2.0 4.0 3.0 3.0 4.0 5.0 4.0 5.0 5.0 1.0 4.0 5.0 4.0 2.0 5.0 5.0 6.0 4.0 7.0 4.0 6.0 4.0 1.0 8.0 2.0 4.0 5.0 4.0 2.0 
3.0 4.0 9.0 2.0 7.0 7.0 4.0 3.0 2.0 7.0 7.0 3.0 5.0 4.0 3.0 4.0 3.0 2.0 4.0 3.0 5.0 4.0 4.0 5.0 4.0 2.0 4.0 6.0 2.0 4.0 6.0 4.0 2.0 3.0 4.0 5.0 5.0 3.0 4.0 3.0 
3.0 1.0 3.0 3.0 5.0 6.0 4.0 6.0 4.0 5.0 4.0 4.0 4.0 1.0 4.0 1.0 6.0 5.0 3.0 3.0 1.0 3.0 7.0 3.0 2.0 1.0 4.0 5.0 7.0 5.0 7.0 5.0 5.0 6.0 2.0 2.0 4.0 3.0 3.0 3.0 
6.0 6.0 6.0 7.0 4.0 3.0 6.0 7.0 2.0 5.0 2.0 3.0 6.0 2.0 4.0 2.0 2.0 1.0 5.0 2.0 5.0 5.0 6.0 5.0 5.0 2.0 3.0 4.0 6.0 8.0 4.0 3.0 4.0 2.0 3.0 2.0 4.0 5.0 4.0 2.0 
5.0 3.0 2.0 5.0 4.0 5.0 3.0 2.0 4.0 5.0 4.0 2.0 7.0 5.0 6.0 2.0 5.0 1.0 3.0 7.0 4.0 3.0 7.0 5.0 4.0 5.0 3.0 4.0 6.0 5.0 8.0 3.0 3.0 5.0 5.0 2.0 3.0 6.0 4.0 7.0 
5.0 4.0 1.0 3.0 2.0 4.0 4.0 4.0 5.0 4.0 4.0 6.0 4.0 3.0 1.0 2.0 5.0 5.0 6.0 3.0 0.0 4.0 4.0 2.0 2.0 5.0 6.0 3.0 5.0 4.0 4.0 6.0 4.0 3.0 0.0 3.0 6.0 3.0 3.0 4.0 
4.0 4.0 3.0 6.0 5.0 6.0 4.0 3.0 4.0 1.0 5.0 4.0 8.0 3.0 4.0 6.0 6.0 4.0 3.0 4.0 1.0 6.0 5.0 5.0 2.0 3.0 2.0 3.0 6.0 5.0 2.0 7.0 5.0 3.0 1.0 3.0 7.0 4.0 5.0 5.0 
4.0 5.0 3.0 1.0 3.0 4.0 5.0 2.0 5.0 4.0 2.0 2.0 1.0 2.0 4.0 3.0 5.0 2.0 1.0 5.0 9.0 7.0 4.0 6.0 3.0 2.0 3.0 2.0 4.0 9.0 0.0 4.0 2.0 3.0 7.0 1.0 5.0 5.0 6.0 6.0 
5.0 5.0 6.0 4.0 4.0 2.0 3.0 8.0 7.0 3.0 2.0 5.0 5.0 1.0 5.0 5.0 0.0 5.0 5.0 3.0 1.0 4.0 2.0 1.0 5.0 6.0 5.0 4.0 5.0 4.0 6.0 4.0 6.0 5.0 1.0 3.0 5.0 4.0 4.0 9.0 
3.0 2.0 3.0 5.0 2.0 4.0 6.0 3.0 9.0 5.0 2.0 3.0 4.0 4.0 3.0 4.0 6.0 8.0 5.0 3.0 5.0 4.0 5.0 7.0 8.0 5.0 1.0 7.0 3.0 6.0 1.0 1.0 3.0 7.0 4.0 3.0 2.0 1.0 2.0 8.0 
3.0 7.0 5.0 2.0 3.0 2.0 4.0 2.0 5.0 5.0 5.0 4.0 2.0 4.0 5.0 7.0 3.0 5.0 2.0 6.0 6.0 3.0 4.0 2.0 3.0 5.0 2.0 6.0 7.0 4.0 5.0 4.0 1.0 3.0 9.0 2.0 4.0 4.0 5.0 6.0 
3.0 3.0 3.0 2.0 4.0 4.0 6.0 4.0 4.0 7.0 4.0 2.0 5.0 1.0 3.0 3.0 4.0 2.0 4.0 5.0 5.0 3.0 2.0 3.0 6.0 2.0 2.0 9.0 3.0 3.0 2.0 5.0 7.0 2.0 2.0 3.0 8.0 4.0 4.0 3.0 
5.0 6.0 3.0 2.0 3.0 6.0 6.0 4.0 4.0 6.0 2.0 4.0 5.0 5.0 7.0 4.0 3.0 5.0 4.0 8.0 5.0 1.0 4.0 6.0 7.0 2.0 5.0 4.0 4.0 5.0 3.0 3.0 3.0 2.0 2.0 8.0 7.0 3.0 4.0 4.0 
3.0 3.0 1.0 4.0 5.0 6.0 5.0 6.0 6.0 3.0 5.0 5.0 4.0 6.0 3.0 6.0 2.0 4.0 4.0 5.0 4.0 8.0 4.0 4.0 6.0 5.0 3.0 3.0 4.0 5.0 2.0 6.0 6.0 6.0 1.0 7.0 7.0 6.0 3.0 5.0 
5.0 7.0 3.0 3.0 5.0 4.0 2.0 4.0 6.0 3.0 3.0 3.0 5.0 7.0 4.0 2.0 5.0 3.0 3.0 3.0 5.0 3.0 4.0 2.0 4.0 5.0 2.0 1.0 2.0 6.0 3.0 7.0 4.0 7.0 2.0 5.0 8.0 4.0 4.0 5.0 
6.0 5.0 3.0 5.0 6.0 1.0 5.0 5.0 5.0 1.0 5.0 3.0 6.0 3.0 3.0 5.0 5.0 2.0 4.0 4.0 4.0 3.0 3.0 3.0 3.0 3.0 3.0 5.0 7.0 4.0 2.0 6.0 3.0 7.0 4.0 4.0 4.0 3.0 2.0 6.0 
2.0 4.0 3.0 3.0 4.0 3.0 3.0 5.0 4.0 5.0 3.0 5.0 4.0 7.0 3.0 8.0 4.0 3.0 4.0 2.0 7.0 6.0 2.0 1.0 3.0 3.0 4.0 4.0 3.0 5.0 6.0 1.0 2.0 3.0 4.0 1.0 5.0 5.0 3.0 5.0 
6.0 1.0 4.0 2.0 3.0 2.0 2.0 3.0 3.0 5.0 4.0 6.0 2.0 6.0 4.0 4.0 4.0 4.0 2.0 5.0 6.0 6.0 5.0 3.0 4.0 2.0 4.0 3.0 3.0 4.0 2.0 6.0 3.0 1.0 3.0 3.0 6.0 4.0 2.0 5.0 
1.0 7.0 4.0 4.0 2.0 4.0 4.0 4.0 4.0 4.0 5.0 5.0 4.0 4.0 2.0 6.0 1.0 7.0 4.0 3.0 2.0 6.0 3.0 2.0 4.0 3.0 4.0 3.0 1.0 4.0 8.0 1.0 4.0 2.0 5.0 6.0 2.0 3.0 3.0 6.0 
1.0 6.0 2.0 4.0 3.0 2.0 3.0 5.0 3.0 3.0 5.0 2.0 4.0 4.0 4.0 4.0 5.0 6.0 4.0 2.0 3.0 7.0 6.0 2.0 6.0 2.0 3.0 2.0 2.0 4.0 6.0 5.0 1.0 4.0 3.0 1.0 3.0 5.0 5.0 8.0 
4.0 6.0 5.0 8.0 6.0 3.0 3.0 4.0 9.0 5.0 3.0 2.0 3.0 2.0 3.0 7.0 4.0 4.0 5.0 4.0 6.0 2.0 3.0 3.0 5.0 5.0 4.0 5.0 1.0 3.0 3.0 2.0 2.0 5.0 1.0 5.0 4.0 2.0 3.0 3.0 
6.0 4.0 2.0 4.0 2.0 3.0 3.0 3.0 3.0 3.0 2.0 3.0 5.0 4.0 4.0 6.0 2.0 5.0 5.0 4.0 2.0 5.0 5.0 4.0 3.0 5.0 4.0 4.0 4.0 2.0 6.0 2.0 5.0 6.0 4.0 4.0 3.0 8.0 3.0 2.0 
8.0 4.0 1.0 3.0 6.0 4.0 7.0 6.0 4.0 1.0 5.0 5.0 4.0 3.0 4.0 4.0 3.0 2.0 5.0 6.0 1.0 1.0 5.0 5.0 6.0 4.0 3.0 4.0 4.0 0.0 5.0 5.0 3.0 5.0 7.0 1.0 7.0 3.0 2.0 3.0 
4.0 5.0 3.0 4.0 4.0 5.0 5.0 3.0 3.0 4.0 2.0 4.0 2.0 7.0 3.0 4.0 1.0 6.0 4.0 4.0 5.0 1.0 5.0 2.0 6.0 6.0 5.0 5.0 2.0 3.0 4.0 7.0 1.0 5.0 5.0 2.0 4.0 2.0 3.0 1.0 
2.0 4.0 4.0 3.0 3.0 5.0 6.0 7.0 4.0 4.0 7.0 2.0 4.0 6.0 7.0 6.0 5.0 5.0 4.0 1.0 7.0 3.0 4.0 5.0 6.0 3.0 3.0 1.0 2.0 6.0 2.0 2.0 3.0 4.0 2.0 2.0 5.0 3.0 3.0 3.0 
7.0 6.0 2.0 3.0 1.0 9.0 3.0 4.0 4.0 3.0 5.0 5.0 7.0 5.0 3.0 6.0 6.0 4.0 3.0 3.0 3.0 6.0 7.0 3.0 4.0 3.0 4.0 0.0 3.0 4.0 5.0 3.0 4.0 6.0 5.0 4.0 7.0 3.0 4.0 2.0 
8.0 5.0 4.0 5.0 1.0 2.0 4.0 5.0 4.0 6.0 2.0 4.0 3.0 4.0 5.0 6.0 5.0 4.0 4.0 5.0 4.0 3.0 1.0 3.0 8.0 3.0 3.0 7.0 3.0 3.0 5.0 3.0 5.0 4.0 3.0 5.0 1.0 5.0 3.0 2.0 
3.0 0.0 3.0 4.0 5.0 1.0 3.0 3.0 6.0 7.0 3.0 2.0 4.0 3.0 7.0 3.0 4.0 3.0 5.0 4.0 4.0 1.0 2.0 2.0 2.0 1.0 2.0 6.0 2.0 3.0 3.0 8.0 2.0 4.0 3.0 2.0 2.0 5.0 4.0 1.0 
6.0 4.0 5.0 4.0 5.0 5.0 4.0 5.0 1.0 5.0 3.0 5.0 6.0 3.0 10.0 6.0 5.0 4.0 2.0 6.0 4.0 3.0 6.0 3.0 5.0 5.0 4.0 3.0 5.0 5.0 2.0 5.0 4.0 4.0 6.0 2.0 4.0 7.0 3.0 4.0 
4.0 4.0 2.0 6.0 3.0 3.0 5.0 5.0 8.0 2.0 2.0 2.0 6.0 3.0 6.0 4.0 6.0 4.0 4.0 4.0 6.0 3.0 4.0 6.0 7.0 7.0 3.0 2.0 2.0 6.0 3.0 5.0 4.0 3.0 3.0 3.0 5.0 2.0 3.0 3.0 
7.0 3.0 4.0 3.0 6.0 7.0 3.0 4.0 5.0 6.0 7.0 2.0 6.0 2.0 4.0 4.0 2.0 2.0 4.0 4.0 4.0 3.0 2.0 2.0 5.0 6.0 7.0 3.0 8.0 4.0 2.0 3.0 5.0 5.0 4.0 3.0 3.0 4.0 2.0 3.0 
2.0 4.0 2.0 6.0 4.0 4.0 3.0 2.0 3.0 6.0 6.0 5.0 7.0 4.0 3.0 7.0 5.0 3.0 3.0 2.0 4.0 2.0 3.0 5.0 3.0 1.0 5.0 3.0 4.0 3.0 5.0 4.0 3.0 7.0 4.0 6.0 6.0 2.0 3.0 7.0 
2.0 3.0 8.0 1.0 4.0 5.0 5.0 5.0 2.0 5.0 6.0 6.0 2.0 5.0 7.0 4.0 4.0 5.0 3.0 5.0 4.0 2.0 3.0 2.0 2.0 6.0 4.0 2.0 5.0 2.0 2.0 3.0 3.0 4.0 6.0 5.0 5.0 3.0 3.0 4.0 
3.0 5.0 2.0 5.0 1.0 6.0 1.0 4.0 1.0 9.0 5.0 4.0 5.0 3.0 3.0 3.0 5.0 4.0 4.0 4.0 7.0 3.0 4.0 5.0 6.0 2.0 1.0 2.0 5.0 7.0 6.0 8.0 3.0 6.0 3.0 2.0 3.0 4.0 3.0 2.0 
3.0 2.0 3.0 7.0 5.0 2.0 2.0 3.0 5.0 4.0 4.0 5.0 7.0 5.0 4.0 2.0 5.0 5.0 5.0 3.0 3.0 4.0 3.0 4.0 5.0 5.0 2.0 3.0 2.0 3.0 2.0 2.0 2.0 1.0 2.0 4.0 3.0 4.0 4.0 4.0 
8.0 3.0 5.0 6.0 3.0 5.0 3.0 3.0 3.0 7.0 4.0 4.0 3.0 5.0 1.0 5.0 3.0 3.0 5.0 7.0 7.0 5.0 4.0 5.0 2.0 4.0 2.0 5.0 1.0 4.0 4.0 3.0 3.0 5.0 2.0 2.0 2.0 2.0 7.0 4.0 
1.0 5.0 4.0 3.0 2.0 6.0 3.0 5.0 3.0 4.0 6.0 4.0 5.0 6.0 2.0 3.0 4.0 5.0 4.0 6.0 6.0 3.0 3.0 6.0 5.0 6.0 6.0 6.0 7.0 2.0 2.0 4.0 3.0 4.0 5.0 5.0 4.0 6.0 6.0 0.0 
1.0 4.0 4.0 4.0 5.0 2.0 3.0 7.0 4.0 4.0 6.0 6.0 6.0 5.0 7.0 3.0 5.0 1.0 6.0 4.0 6.0 9.0 3.0 4.0 3.0 2.0 3.0 4.0 1.0 5.0 5.0 2.0 6.0 5.0 4.0 3.0 2.0 3.0 3.0 6.0 
5.0 7.0 2.0 3.0 3.0 5.0 5.0 1.0 4.0 2.0 2.0 4.0 4.0 7.0 3.0 3.0 3.0 5.0 2.0 6.0 1.0 3.0 5.0 4.0 5.0 2.0 4.0 7.0 2.0 4.0 3.0 1.0 4.0 6.0 4.0 1.0 4.0 2.0 3.0 5.0 
2.0 2.0 3.0 4.0 1.0 5.0 5.0 8.0 6.0 4.0 6.0 3.0 7.0 5.0 3.0 5.0 4.0 8.0 5.0 1.0 7.0 4.0 4.0 3.0 4.0 3.0 2.0 5.0 5.0 8.0 3.0 6.0 7.0 4.0 6.0 6.0 5.0 8.0 7.0 9.0 
4.0 3.0 3.0 6.0 6.0 4.0 6.0 6.0 5.0 4.0 6.0 6.0 3.0 2.0 3.0 3.0 6.0 4.0 4.0 4.0 3.0 8.0 5.0 3.0 2.0 6.0 7.0 2.0 4.0 3.0 5.0 4.0 4.0 5.0 5.0 6.0 5.0 2.0 5.0 4.0 
4.0 7.0 4.0 4.0 6.0 1.0 2.0 4.0 1.0 4.0 3.0 2.0 1.0 3.0 5.0 4.0 6.0 3.0 3.0 2.0 2.0 4.0 6.0 6.0 2.0 5.0 5.0 5.0 3.0 3.0 4.0 9.0 3.0 4.0 2.0 3.0 6.0 3.0 2.0 6.0 
2.0 3.0 8.0 2.0 3.0 4.0 2.0 0.0 5.0 4.0 6.0 1.0 3.0 2.0 5.0 2.0 2.0 5.0 3.0 4.0 3.0 5.0 2.0 4.0 5.0 4.0 4.0 4.0 5.0 0.0 2.0 4.0 2.0 3.0 3.0 3.0 6.0 4.0 6.0 3.0 
4.0 3.0 1.0 8.0 6.0 4.0 1.0 0.0 4.0 4.0 1.0 3.0 2.0 6.0 7.0 3.0 1.0 2.0 3.0 4.0 0.0 2.0 6.0 4.0 4.0 5.0 3.0 2.0 5.0 2.0 3.0 3.0 2.0 3.0 2.0 4.0 6.0 4.0 6.0 8.0 
6.0 4.0 5.0 4.0 1.0 1.0 0.0 6.0 5.0 5.0 1.0 8.0 6.0 1.0 7.0 4.0 4.0 3.0 2.0 4.0 3.0 3.0 5.0 6.0 5.0 3.0 1.0 6.0 4.0 2.0 4.0 4.0 5.0 2.0 1.0 4.0 6.0 6.0 5.0 5.0 
4.0 3.0 8.0 2.0 4.0 5.0 4.0 2.0 4.0 5.0 4.0 3.0 2.0 3.0 2.0 4.0 2.0 4.0 3.0 4.0 4.0 6.0 4.0 2.0 3.0 2.0 3.0 6.0 3.0 1.0 3.0 2.0 4.0 2.0 5.0 2.0 6.0 5.0 8.0 3.0 
4.0 5.0 5.0 5.0 4.0 3.0 3.0 5.0 7.0 4.0 3.0 4.0 4.0 4.0 2.0 2.0 3.0 4.0 8.0 1.0 3.0 5.0 2.0 4.0 4.0 4.0 3.0 4.0 6.0 5.0 2.0 4.0 5.0 4.0 1.0 3.0 3.0 6.0 4.0 8.0 
4.0 2.0 3.0 3.0 6.0 2.0 2.0 3.0 3.0 2.0 7.0 5.0 4.0 3.0 5.0 5.0 5.0 7.0 3.0 3.0 2.0 1.0 1.0 1.0 3.0 5.0 8.0 1.0 4.0 3.0 4.0 4.0 3.0 3.0 6.0 7.0 4.0 4.0 4.0 5.0 
4.0 5.0 3.0 3.0 4.0 5.0 5.0 3.0 4.0 3.0 7.0 5.0 4.0 6.0 6.0 5.0 2.0 5.0 3.0 0.0 7.0 3.0 3.0 4.0 4.0 7.0 6.0 2.0 6.0 4.0 0.0 4.0 4.0 5.0 2.0 2.0 2.0 4.0 4.0 6.0 
5.0 3.0 1.0 3.0 7.0 0.0 4.0 5.0 6.0 4.0 5.0 1.0 6.0 2.0 3.0 5.0 2.0 5.0 6.0 6.0 7.0 3.0 2.0 2.0 4.0 4.0 3.0 6.0 6.0 4.0 3.0 5.0 2.0 5.0 5.0 3.0 4.0 2.0 5.0 3.0 
1.0 5.0 4.0 3.0 3.0 4.0 1.0 3.0 2.0 4.0 0.0 4.0 3.0 5.0 2.0 5.0 7.0 4.0 2.0 3.0 5.0 5.0 3.0 3.0 4.0 3.0 5.0 2.0 4.0 4.0 1.0 4.0 5.0 3.0 2.0 7.0 4.0 7.0 2.0 3.0 
6.0 5.0 5.0 6.0 5.0 5.0 2.0 2.0 3.0 2.0 7.0 5.0 6.0 4.0 4.0 2.0 4.0 7.0 4.0 4.0 4.0 3.0 5.0 5.0 4.0 3.0 7.0 3.0 2.0 1.0 5.0 3.0 5.0 1.0 3.0 6.0 4.0 6.0 6.0 1.0 
6.0 2.0 9.0 6.0 2.0 3.0 6.0 4.0 2.0 5.0 3.0 3.0 2.0 4.0 2.0 3.0 3.0 4.0 2.0 5.0 5.0 7.0 4.0 3.0 5.0 3.0 4.0 3.0 4.0 4.0 3.0 6.0 3.0 4.0 4.0 3.0 3.0 7.0 0.0 2.0 
3.0 4.0 1.0 4.0 7.0 3.0 4.0 2.0 3.0 3.0 4.0 7.0 3.0 5.0 7.0 4.0 3.0 4.0 4.0 1.0 5.0 6.0 3.0 0.0 4.0 5.0 6.0 3.0 3.0 0.0 3.0 6.0 2.0 10.0 2.0 4.0 5.0 6.0 5.0 4.0 
5.0 3.0 6.0 6.0 6.0 3.0 3.0 4.0 4.0 5.0 6.0 2.0 2.0 2.0 6.0 5.0 3.0 5.0 5.0 6.0 1.0 4.0 5.0 0.0 6.0 2.0 5.0 5.0 3.0 2.0 4.0 3.0 6.0 2.0 4.0 4.0 3.0 4.0 3.0 4.0 
8.0 7.0 4.0 5.0 5.0 2.0 4.0 4.0 4.0 3.0 4.0 2.0 5.0 4.0 2.0 4.0 6.0 2.0 5.0 3.0 5.0 4.0 7.0 3.0 3.0 3.0 1.0 4.0 5.0 5.0 6.0 4.0 2.0 3.0 5.0 3.0 4.0 4.0 4.0 4.0 
7.0 2.0 6.0 3.0 4.0 2.0 2.0 3.0 5.0 1.0 5.0 4.0 1.0 5.0 5.0 4.0 2.0 4.0 2.0 3.0 5.0 3.0 7.0 3.0 8.0 3.0 5.0 4.0 5.0 4.0 3.0 7.0 5.0 5.0 3.0 4.0 0.0 2.0 2.0 4.0 
2.0 5.0 4.0 3.0 3.0 2.0 6.0 3.0 4.0 2.0 5.0 4.0 5.0 2.0 7.0 4.0 4.0 6.0 5.0 2.0 6.0 4.0 5.0 6.0 3.0 3.0 2.0 5.0 5.0 2.0 5.0 3.0 3.0 4.0 3.0 3.0 5.0 3.0 2.0 2.0 
4.0 5.0 4.0 6.0 5.0 6.0 2.0 2.0 3.0 2.0 4.0 2.0 3.0 3.0 5.0 2.0 7.0 6.0 3.0 0.0 8.0 3.0 3.0 7.0 4.0 4.0 5.0 4.0 4.0 1.0 2.0 3.0 4.0 2.0 2.0 6.0 2.0 3.0 6.0 3.0 
4.0 3.0 5.0 3.0 5.0 6.0 5.0 4.0 5.0 1.0 2.0 2.0 3.0 3.0 3.0 8.0 3.0 1.0 4.0 4.0 4.0 4.0 4.0 4.0 3.0 3.0 6.0 6.0 4.0 4.0 4.0 5.0 6.0 4.0 5.0 3.0 3.0 5.0 2.0 4.0 
2.0 9.0 5.0 4.0 5.0 6.0 5.0 7.0 6.0 3.0 6.0 5.0 5.0 5.0 3.0 4.0 6.0 4.0 2.0 8.0 2.0 4.0 11.0 3.0 4.0 4.0 4.0 5.0 5.0 4.0 5.0 6.0 3.0 2.0 2.0 4.0 5.0 7.0 6.0 4.0 
4.0 4.0 5.0 3.0 6.0 4.0 5.0 2.0 3.0 4.0 5.0 5.0 5.0 5.0 6.0 4.0 2.0 2.0 3.0 2.0 4.0 5.0 5.0 4.0 4.0 3.0 5.0 4.0 5.0 3.0 5.0 2.0 2.0 2.0 3.0 2.0 4.0 2.0 0.0 5.0 
5.0 2.0 5.0 4.0 6.0 3.0 3.0 4.0 3.0 5.0 3.0 6.0 6.0 2.0 5.0 5.0 5.0 4.0 4.0 5.0 5.0 6.0 2.0 1.0 4.0 3.0 7.0 2.0 4.0 5.0 6.0 6.0 7.0 5.0 7.0 6.0 6.0 6.0 6.0 2.0 
4.0 4.0 5.0 5.0 5.0 2.0 3.0 3.0 5.0 5.0 4.0 5.0 3.0 2.0 3.0 5.0 3.0 2.0 3.0 6.0 3.0 4.0 4.0 5.0 4.0 5.0 3.0 3.0 4.0 2.0 2.0 6.0 5.0 6.0 11.0 3.0 4.0 1.0 5.0 5.0 
4.0 3.0 2.0 4.0 4.0 1.0 5.0 3.0 5.0 3.0 2.0 4.0 4.0 3.0 7.0 3.0 1.0 3.0 5.0 2.0 4.0 4.0 5.0 3.0 2.0 2.0 4.0 2.0 2.0 3.0 4.0 3.0 7.0 4.0 3.0 3.0 1.0 1.0 4.0 4.0 
5.0 2.0 4.0 5.0 4.0 8.0 4.0 3.0 7.0 2.0 3.0 6.0 2.0 1.0 5.0 4.0 3.0 3.0 5.0 3.0 3.0 1.0 5.0 6.0 5.0 5.0 6.0 4.0 4.0 5.0 2.0 5.0 1.0 5.0 3.0 6.0 3.0 2.0 4.0 3.0 
6.0 6.0 3.0 1.0 3.0 3.0 9.0 4.0 3.0 6.0 5.0 4.0 5.0 1.0 4.0 4.0 2.0 4.0 3.0 2.0 2.0 3.0 3.0 5.0 3.0 4.0 3.0 5.0 3.0 5.0 4.0 2.0 5.0 3.0 4.0 5.0 3.0 4.0 7.0 2.0 
5.0 5.0 3.0 1.0 2.0 3.0 4.0 1.0 6.0 4.0 3.0 6.0 5.0 5.0 4.0 5.0 5.0 3.0 5.0 3.0 0.0 2.0 3.0 7.0 4.0 5.0 8.0 4.0 3.0 6.0 4.0 2.0 4.0 6.0 3.0 4.0 4.0 7.0 4.0 6.0 
4.0 2.0 2.0 3.0 3.0 3.0 3.0 1.0 3.0 2.0 5.0 2.0 1.0 4.0 5.0 6.0 6.0 2.0 4.0 5.0 5.0 2.0 1.0 5.0 4.0 2.0 4.0 2.0 5.0 3.0 4.0 4.0 1.0 7.0 2.0 5.0 2.0 5.0 2.0 2.0 
4.0 4.0 4.0 4.0 6.0 6.0 3.0 2.0 4.0 6.0 2.0 8.0 5.0 7.0 2.0 4.0 2.0 7.0 4.0 5.0 4.0 3.0 4.0 2.0 5.0 2.0 5.0 7.0 3.0 2.0 5.0 4.0 4.0 1.0 5.0 2.0 2.0 4.0 5.0 5.0 
3.0 4.0 5.0 2.0 5.0 2.0 8.0 4.0 3.0 5.0 3.0 5.0 1.0 1.0 6.0 5.0 5.0 3.0 6.0 1.0 5.0 4.0 4.0 3.0 5.0 2.0 2.0 3.0 4.0 5.0 5.0 3.0 2.0 7.0 5.0 4.0 1.0 3.0 5.0 5.0 
3.0 4.0 6.0 7.0 4.0 4.0 4.0 7.0 4.0 9.0 4.0 3.0 4.0 8.0 5.0 4.0 5.0 3.0 5.0 5.0 3.0 4.0 1.0 5.0 6.0 5.0 7.0 4.0 2.0 3.0 3.0 4.0 5.0 3.0 6.0 2.0 5.0 3.0 2.0 4.0 
3.0 2.0 3.0 2.0 3.0 3.0 7.0 2.0 3.0 2.0 5.0 5.0 3.0 1.0 4.0 2.0 6.0 5.0 3.0 3.0 3.0 1.0 1.0 3.0 6.0 2.0 5.0 5.0 6.0 3.0 5.0 5.0 1.0 3.0 5.0 6.0 5.0 3.0 4.0 4.0 
2.0 2.0 3.0 3.0 5.0 4.0 6.0 4.0 5.0 5.0 4.0 5.0 4.0 5.0 3.0 2.0 5.0 6.0 4.0 4.0 2.0 6.0 4.0 5.0 1.0 5.0 4.0 4.0 3.0 1.0 3.0 3.0 5.0 4.0 3.0 2.0 3.0 3.0 1.0 4.0 
3.0 3.0 6.0 4.0 5.0 5.0 2.0 4.0 8.0 11.0 4.0 2.0 6.0 5.0 2.0 9.0 5.0 2.0 3.0 4.0 2.0 4.0 5.0 4.0 5.0 3.0 4.0 3.0 3.0 6.0 3.0 2.0 5.0 3.0 6.0 2.0 10.0 5.0 4.0 4.0 
2.0 6.0 3.0 3.0 6.0 5.0 2.0 2.0 6.0 5.0 3.0 6.0 5.0 4.0 3.0 4.0 8.0 3.0 3.0 4.0 3.0 5.0 2.0 7.0 2.0 7.0 4.0 5.0 6.0 3.0 2.0 4.0 5.0 4.0 6.0 3.0 3.0 4.0 5.0 4.0 
4.0 3.0 3.0 8.0 9.0 3.0 6.0 3.0 3.0 2.0 2.0 4.0 5.0 1.0 6.0 4.0 2.0 2.0 3.0 2.0 1.0 3.0 3.0 4.0 6.0 4.0 4.0 4.0 6.0 4.0 4.0 4.0 3.0 4.0 5.0 6.0 7.0 5.0 4.0 5.0 
4.0 3.0 3.0 4.0 4.0 5.0 2.0 4.0 4.0 4.0 3.0 3.0 4.0 5.0 7.0 5.0 2.0 3.0 6.0 9.0 4.0 2.0 5.0 5.0 5.0 6.0 4.0 1.0 4.0 6.0 3.0 6.0 4.0 3.0 5.0 6.0 2.0 1.0 3.0 1.0 
5.0 7.0 3.0 4.0 6.0 2.0 5.0 3.0 2.0 8.0 2.0 2.0 5.0 4.0 3.0 5.0 2.0 4.0 5.0 6.0 7.0 2.0 4.0 3.0 5.0 4.0 8.0 3.0 7.0 5.0 4.0 5.0 3.0 6.0 4.0 5.0 4.0 2.0 6.0 4.0 
5.0 4.0 4.0 3.0 5.0 5.0 2.0 7.0 4.0 5.0 5.0 6.0 3.0 5.0 2.0 6.0 2.0 5.0 1.0 6.0 2.0 9.0 5.0 4.0 4.0 5.0 2.0 6.0 3.0 4.0 8.0 4.0 4.0 7.0 3.0 4.0 5.0 6.0 2.0 5.0 
9.0 3.0 3.0 2.0 2.0 7.0 3.0 6.0 4.0 5.0 3.0 4.0 2.0 7.0 0.0 5.0 2.0 4.0 3.0 4.0 1.0 5.0 6.0 6.0 6.0 1.0 4.0 4.0 6.0 4.0 2.0 5.0 0.0 5.0 3.0 2.0 2.0 4.0 4.0 7.0 
5.0 7.0 2.0 2.0 4.0 3.0 5.0 4.0 2.0 5.0 3.0 5.0 3.0 5.0 3.0 2.0 6.0 5.0 8.0 6.0 2.0 10.0 4.0 5.0 2.0 1.0 3.0 2.0 5.0 3.0 3.0 3.0 4.0 3.0 2.0 6.0 2.0 9.0 4.0 6.0 
4.0 5.0 3.0 5.0 4.0 3.0 4.0 4.0 5.0 2.0 4.0 3.0 7.0 5.0 3.0 6.0 2.0 5.0 1.0 6.0 3.0 2.0 6.0 1.0 3.0 4.0 1.0 7.0 2.0 4.0 5.0 2.0 1.0 2.0 5.0 6.0 4.0 3.0 4.0 5.0 
2.0 3.0 5.0 5.0 4.0 4.0 3.0 4.0 1.0 5.0 6.0 3.0 1.0 2.0 4.0 2.0 7.0 4.0 3.0 4.0 5.0 6.0 4.0 4.0 6.0 6.0 7.0 4.0 4.0 0.0 3.0 5.0 5.0 5.0 5.0 4.0 5.0 6.0 7.0 6.0 
2.0 7.0 5.0 9.0 4.0 5.0 2.0 4.0 3.0 2.0 4.0 3.0 6.0 1.0 4.0 6.0 2.0 4.0 4.0 5.0 0.0 3.0 1.0 4.0 4.0 2.0 6.0 3.0 7.0 4.0 8.0 4.0 4.0 5.0 4.0 4.0 6.0 2.0 8.0 6.0 
4.0 2.0 1.0 2.0 6.0 5.0 3.0 3.0 5.0 8.0 5.0 2.0 5.0 4.0 7.0 2.0 2.0 3.0 2.0 6.0 6.0 1.0 5.0 6.0 4.0 3.0 4.0 6.0 2.0 2.0 2.0 3.0 6.0 3.0 4.0 3.0 2.0 5.0 0.0 3.0 
4.0 6.0 5.0 4.0 8.0 5.0 4.0 3.0 4.0 3.0 5.0 3.0 4.0 1.0 6.0 5.0 6.0 5.0 4.0 4.0 2.0 4.0 4.0 3.0 3.0 6.0 2.0 1.0 2.0 6.0 2.0 1.0 4.0 2.0 3.0 3.0 3.0 4.0 5.0 7.0 
5.0 4.0 4.0 3.0 2.0 5.0 5.0 8.0 2.0 2.0 4.0 3.0 3.0 4.0 3.0 4.0 3.0 5.0 2.0 3.0 6.0 4.0 1.0 6.0 2.0 8.0 1.0 3.0 0.0 2.0 4.0 3.0 6.0 5.0 2.0 4.0 3.0 2.0 5.0 1.0 
3.0 4.0 5.0 1.0 1.0 4.0 5.0 3.0 3.0 5.0 4.0 3.0 4.0 6.0 4.0 3.0 1.0 3.0 3.0 6.0 8.0 4.0 5.0 9.0 6.0 6.0 7.0 3.0 6.0 5.0 2.0 3.0 3.0 8.0 7.0 4.0 3.0 6.0 1.0 3.0 
3.0 4.0 5.0 6.0 3.0 1.0 5.0 5.0 3.0 5.0 3.0 3.0 4.0 5.0 2.0 3.0 6.0 4.0 5.0 3.0 4.0 2.0 4.0 6.0 4.0 3.0 3.0 3.0 4.0 3.0 6.0 3.0 5.0 7.0 2.0 5.0 4.0 5.0 4.0 2.0 
2.0 3.0 4.0 2.0 7.0 2.0 4.0 2.0 3.0 3.0 2.0 1.0 1.0 3.0 4.0 6.0 4.0 5.0 4.0 2.0 5.0 3.0 2.0 7.0 2.0 2.0 5.0 9.0 7.0 6.0 5.0 4.0 4.0 2.0 5.0 3.0 4.0 4.0 9.0 5.0 
3.0 3.0 8.0 8.0 3.0 4.0 5.0 2.0 6.0 3.0 3.0 1.0 0.0 5.0 2.0 8.0 3.0 2.0 5.0 2.0 3.0 6.0 4.0 5.0 2.0 5.0 4.0 1.0 5.0 4.0 6.0 6.0 5.0 4.0 5.0 5.0 4.0 5.0 3.0 2.0 
2.0 4.0 3.0 2.0 3.0 3.0 2.0 6.0 6.0 3.0 3.0 1.0 5.0 5.0 2.0 2.0 6.0 4.0 3.0 4.0 1.0 3.0 7.0 3.0 4.0 5.0 3.0 4.0 5.0 2.0 6.0 4.0 4.0 7.0 7.0 2.0 1.0 3.0 4.0 5.0 
3.0 5.0 3.0 4.0 4.0 2.0 6.0 4.0 5.0 4.0 5.0 5.0 4.0 4.0 3.0 5.0 6.0 2.0 3.0 4.0 3.0 4.0 3.0 4.0 2.0 2.0 6.0 4.0 8.0 3.0 7.0 4.0 5.0 3.0 6.0 2.0 4.0 4.0 2.0 5.0 
8.0 2.0 4.0 4.0 2.0 3.0 2.0 2.0 6.0 7.0 4.0 3.0 3.0 3.0 3.0 6.0 3.0 4.0 1.0 3.0 1.0 6.0 4.0 2.0 5.0 3.0 4.0 6.0 0.0 6.0 9.0 3.0 5.0 5.0 3.0 4.0 3.0 3.0 3.0 4.0 
4.0 5.0 3.0 4.0 3.0 2.0 2.0 4.0 10.0 5.0 2.0 3.0 2.0 7.0 5.0 5.0 3.0 4.0 5.0 4.0 3.0 5.0 4.0 2.0 2.0 6.0 3.0 7.0 2.0 5.0 3.0 4.0 7.0 8.0 3.0 4.0 5.0 2.0 6.0 3.0 
4.0 5.0 3.0 8.0 3.0 5.0 5.0 1.0 1.0 3.0 4.0 6.0 3.0 4.0 7.0 4.0 6.0 3.0 6.0 3.0 2.0 7.0 3.0 7.0 4.0 4.0 7.0 7.0 2.0 5.0 1.0 5.0 3.0 4.0 4.0 4.0 5.0 6.0 5.0 6.0 
6.0 1.0 3.0 8.0 8.0 3.0 3.0 9.0 1.0 4.0 2.0 4.0 2.0 4.0 7.0 2.0 7.0 6.0 0.0 5.0 3.0 4.0 5.0 6.0 2.0 3.0 6.0 4.0 4.0 5.0 6.0 3.0 4.0 4.0 6.0 4.0 2.0 6.0 4.0 2.0 
3.0 6.0 2.0 3.0 3.0 6.0 8.0 5.0 4.0 1.0 2.0 7.0 3.0 3.0 7.0 3.0 2.0 6.0 2.0 5.0 7.0 5.0 3.0 5.0 5.0 7.0 10.0 2.0 9.0 4.0 4.0 3.0 4.0 3.0 3.0 3.0 6.0 2.0 3.0 2.0 
5.0 4.0 8.0 4.0 0.0 3.0 3.0 4.0 8.0 3.0 4.0 5.0 3.0 6.0 6.0 1.0 3.0 7.0 4.0 4.0 4.0 7.0 7.0 2.0 3.0 5.0 2.0 2.0 6.0 4.0 2.0 3.0 6.0 5.0 6.0 5.0 4.0 6.0 5.0 1.0 
5.0 3.0 2.0 5.0 6.0 4.0 3.0 3.0 1.0 6.0 2.0 3.0 6.0 6.0 3.0 3.0 7.0 3.0 4.0 4.0 3.0 2.0 6.0 7.0 4.0 2.0 6.0 2.0 5.0 5.0 4.0 4.0 5.0 4.0 1.0 4.0 5.0 7.0 5.0 3.0 
3.0 0.0 3.0 4.0 4.0 3.0 3.0 0.0 4.0 5.0 4.0 3.0 5.0 4.0 4.0 4.0 1.0 5.0 3.0 7.0 2.0 4.0 4.0 2.0 4.0 2.0 4.0 3.0 3.0 2.0 5.0 4.0 6.0 5.0 5.0 3.0 4.0 5.0 3.0 5.0 
2.0 6.0 3.0 7.0 3.0 3.0 5.0 4.0 4.0 3.0 3.0 2.0 2.0 3.0 3.0 6.0 6.0 1.0 3.0 2.0 6.0 2.0 3.0 5.0 4.0 3.0 5.0 1.0 5.0 5.0 4.0 0.0 6.0 5.0 5.0 3.0 10.0 4.0 3.0 4.0 
5.0 5.0 1.0 1.0 3.0 5.0 2.0 6.0 4.0 2.0 6.0 4.0 3.0 5.0 3.0 3.0 5.0 2.0 6.0 6.0 3.0 5.0 6.0 4.0 1.0 2.0 2.0 3.0 3.0 4.0 5.0 5.0 5.0 2.0 12.0 4.0 5.0 6.0 5.0 4.0 
4.0 6.0 5.0 7.0 6.0 5.0 3.0 4.0 6.0 3.0 5.0 5.0 5.0 2.0 4.0 3.0 5.0 1.0 3.0 5.0 2.0 6.0 3.0 1.0 2.0 2.0 3.0 6.0 2.0 5.0 4.0 5.0 3.0 2.0 4.0 6.0 6.0 8.0 0.0 4.0 
4.0 3.0 2.0 8.0 5.0 2.0 4.0 7.0 3.0 6.0 2.0 2.0 5.0 2.0 4.0 5.0 5.0 5.0 5.0 3.0 5.0 5.0 4.0 2.0 2.0 5.0 3.0 3.0 4.0 2.0 3.0 2.0 5.0 3.0 2.0 7.0 5.0 6.0 4.0 4.0 
4.0 4.0 3.0 4.0 3.0 7.0 1.0 5.0 2.0 8.0 5.0 1.0 6.0 2.0 3.0 5.0 3.0 3.0 4.0 3.0 3.0 2.0 3.0 3.0 3.0 5.0 4.0 3.0 3.0 2.0 1.0 4.0 2.0 3.0 4.0 5.0 4.0 6.0 7.0 4.0 
5.0 3.0 4.0 6.0 5.0 4.0 2.0 1.0 4.0 5.0 3.0 2.0 3.0 2.0 4.0 5.0 3.0 5.0 4.0 2.0 3.0 2.0 3.0 4.0 4.0 3.0 5.0 3.0 2.0 6.0 4.0 4.0 9.0 3.0 2.0 3.0 5.0 4.0 3.0 5.0 
4.0 2.0 6.0 3.0 5.0 6.0 3.0 2.0 3.0 7.0 5.0 3.0 7.0 5.0 1.0 7.0 2.0 4.0 3.0 3.0 4.0 4.0 3.0 1.0 4.0 2.0 7.0 4.0 4.0 5.0 2.0 2.0 2.0 5.0 3.0 6.0 3.0 7.0 6.0 3.0 
4.0 4.0 6.0 6.0 7.0 7.0 3.0 3.0 3.0 6.0 5.0 4.0 3.0 2.0 4.0 5.0 1.0 2.0 4.0 4.0 3.0 5.0 2.0 1.0 3.0 6.0 5.0 5.0 6.0 3.0 5.0 6.0 4.0 6.0 0.0 4.0 5.0 2.0 4.0 6.0 
3.0 6.0 4.0 0.0 5.0 1.0 6.0 3.0 4.0 6.0 3.0 4.0 3.0 4.0 3.0 3.0 5.0 4.0 6.0 2.0 3.0 2.0 7.0 4.0 2.0 1.0 3.0 3.0 7.0 4.0 3.0 2.0 1.0 4.0 3.0 3.0 5.0 5.0 2.0 4.0 
3.0 6.0 4.0 6.0 3.0 3.0 2.0 4.0 9.0 5.0 5.0 4.0 3.0 4.0 5.0 6.0 4.0 1.0 4.0 7.0 4.0 1.0 3.0 3.0 3.0 3.0 2.0 4.0 4.0 1.0 4.0 3.0 5.0 3.0 2.0 3.0 4.0 1.0 3.0 3.0 
9.0 1.0 3.0 5.0 2.0 4.0 3.0 1.0 3.0 9.0 3.0 2.0 4.0 4.0 5.0 4.0 5.0 2.0 5.0 8.0 4.0 5.0 4.0 5.0 1.0 0.0 4.0 1.0 3.0 3.0 4.0 5.0 6.0 4.0 1.0 2.0 1.0 6.0 3.0 5.0 
7.0 4.0 5.0 8.0 5.0 3.0 4.0 3.0 4.0 10.0 6.0 3.0 4.0 2.0 3.0 4.0 3.0 6.0 5.0 5.0 9.0 8.0 4.0 4.0 6.0 8.0 4.0 3.0 4.0 4.0 3.0 9.0 3.0 6.0 2.0 6.0 5.0 4.0 4.0 5.0 
3.0 2.0 2.0 7.0 4.0 7.0 9.0 4.0 7.0 9.0 3.0 3.0 4.0 5.0 3.0 2.0 4.0 4.0 3.0 1.0 6.0 3.0 4.0 4.0 3.0 3.0 2.0 4.0 5.0 6.0 2.0 4.0 3.0 5.0 4.0 2.0 4.0 6.0 2.0 5.0 
6.0 3.0 9.0 1.0 3.0 1.0 3.0 3.0 4.0 4.0 3.0 4.0 3.0 4.0 3.0 4.0 5.0 3.0 1.0 6.0 5.0 5.0 10.0 6.0 2.0 4.0 3.0 4.0 6.0 2.0 3.0 4.0 6.0 2.0 4.0 3.0 3.0 4.0 4.0 4.0 
3.0 5.0 2.0 6.0 2.0 3.0 3.0 3.0 4.0 6.0 2.0 2.0 4.0 4.0 6.0 5.0 3.0 2.0 5.0 4.0 4.0 3.0 8.0 2.0 5.0 4.0 3.0 2.0 4.0 7.0 4.0 2.0 3.0 5.0 3.0 3.0 4.0 6.0 4.0 2.0 
3.0 2.0 4.0 3.0 6.0 1.0 3.0 3.0 6.0 4.0 3.0 3.0 6.0 4.0 3.0 5.0 4.0 2.0 4.0 5.0 2.0 7.0 4.0 4.0 6.0 2.0 3.0 3.0 5.0 4.0 6.0 4.0 4.0 6.0 3.0 5.0 2.0 2.0 5.0 3.0 
3.0 5.0 6.0 3.0 5.0 4.0 4.0 4.0 4.0 4.0 5.0 4.0 4.0 3.0 6.0 2.0 5.0 4.0 4.0 4.0 9.0 4.0 5.0 6.0 5.0 2.0 6.0 6.0 3.0 5.0 4.0 4.0 8.0 2.0 6.0 7.0 3.0 4.0 8.0 5.0 
4.0 5.0 8.0 5.0 4.0 4.0 2.0 2.0 2.0 2.0 2.0 6.0 5.0 4.0 2.0 5.0 5.0 6.0 6.0 4.0 4.0 3.0 5.0 5.0 2.0 4.0 9.0 3.0 3.0 4.0 5.0 7.0 3.0 6.0 5.0 7.0 3.0 5.0 3.0 5.0 
2.0 5.0 4.0 6.0 5.0 4.0 5.0 6.0 7.0 2.0 7.0 2.0 6.0 5.0 7.0 6.0 3.0 6.0 4.0 3.0 5.0 5.0 7.0 6.0 4.0 3.0 5.0 4.0 1.0 3.0 4.0 7.0 5.0 3.0 5.0 5.0 1.0 4.0 3.0 7.0 
2.0 1.0 2.0 3.0 2.0 3.0 6.0 4.0 5.0 4.0 10.0 6.0 7.0 4.0 3.0 6.0 5.0 5.0 4.0 4.0 2.0 3.0 6.0 3.0 5.0 4.0 4.0 3.0 3.0 5.0 1.0 2.0 6.0 4.0 5.0 2.0 6.0 2.0 6.0 5.0 
2.0 4.0 3.0 5.0 4.0 5.0 3.0 3.0 4.0 3.0 4.0 4.0 4.0 5.0 4.0 3.0 2.0 1.0 3.0 3.0 3.0 1.0 4.0 5.0 4.0 6.0 7.0 3.0 3.0 4.0 5.0 6.0 3.0 3.0 5.0 6.0 3.0 4.0 5.0 3.0 
4.0 2.0 2.0 4.0 4.0 3.0 4.0 3.0 5.0 4.0 7.0 11.0 5.0 2.0 4.0 5.0 2.0 3.0 2.0 3.0 3.0 5.0 2.0 0.0 4.0 6.0 4.0 4.0 2.0 6.0 4.0 7.0 6.0 3.0 7.0 2.0 2.0 4.0 9.0 3.0 
5.0 5.0 7.0 5.0 4.0 1.0 5.0 2.0 6.0 3.0 3.0 4.0 0.0 6.0 4.0 4.0 3.0 3.0 5.0 4.0 1.0 2.0 4.0 1.0 6.0 5.0 5.0 5.0 4.0 3.0 4.0 3.0 3.0 3.0 1.0 5.0 3.0 8.0 5.0 5.0 
2.0 2.0 5.0 3.0 5.0 3.0 4.0 4.0 3.0 2.0 2.0 4.0 3.0 5.0 4.0 1.0 3.0 1.0 3.0 4.0 6.0 2.0 4.0 4.0 5.0 5.0 7.0 4.0 3.0 3.0 3.0 3.0 5.0 4.0 4.0 6.0 6.0 3.0 2.0 6.0 
3.0 2.0 4.0 5.0 4.0 5.0 5.0 8.0 2.0 4.0 4.0 4.0 2.0 3.0 6.0 7.0 3.0 6.0 3.0 5.0 4.0 2.0 7.0 5.0 4.0 2.0 3.0 3.0 6.0 5.0 2.0 4.0 6.0 4.0 1.0 4.0 3.0 2.0 3.0 4.0 
2.0 3.0 3.0 5.0 2.0 2.0 5.0 6.0 5.0 5.0 4.0 4.0 4.0 5.0 3.0 5.0 5.0 4.0 1.0 5.0 6.0 2.0 3.0 3.0 3.0 1.0 1.0 2.0 4.0 3.0 2.0 2.0 1.0 5.0 3.0 5.0 5.0 7.0 2.0 5.0 
2.0 7.0 3.0 6.0 1.0 6.0 3.0 7.0 3.0 4.0 3.0 7.0 4.0 3.0 4.0 2.0 1.0 4.0 5.0 3.0 6.0 6.0 2.0 6.0 4.0 2.0 4.0 0.0 6.0 4.0 2.0 3.0 1.0 1.0 5.0 3.0 4.0 5.0 5.0 8.0 
2.0 5.0 3.0 6.0 4.0 3.0 3.0 4.0 1.0 3.0 5.0 1.0 9.0 4.0 3.0 6.0 6.0 7.0 4.0 2.0 2.0 2.0 4.0 5.0 4.0 3.0 1.0 1.0 7.0 3.0 5.0 1.0 5.0 5.0 4.0 5.0 4.0 4.0 2.0 4.0 
3.0 4.0 5.0 2.0 3.0 8.0 5.0 3.0 4.0 3.0 5.0 5.0 4.0 2.0 5.0 6.0 4.0 8.0 5.0 6.0 3.0 3.0 0.0 3.0 3.0 3.0 5.0 5.0 3.0 4.0 3.0 3.0 5.0 8.0 4.0 4.0 1.0 5.0 3.0 3.0 
5.0 0.0 4.0 1.0 1.0 4.0 6.0 1.0 5.0 4.0 4.0 1.0 3.0 4.0 4.0 5.0 2.0 6.0 4.0 3.0 3.0 5.0 6.0 3.0 2.0 5.0 3.0 6.0 4.0 5.0 3.0 5.0 1.0 7.0 3.0 8.0 4.0 2.0 5.0 1.0 
0.0 5.0 2.0 3.0 3.0 4.0 3.0 3.0 5.0 6.0 3.0 5.0 5.0 5.0 4.0 4.0 2.0 7.0 4.0 4.0 2.0 3.0 6.0 7.0 4.0 5.0 7.0 1.0 7.0 4.0 5.0 4.0 2.0 8.0 5.0 4.0 7.0 4.0 0.0 1.0 
4.0 1.0 2.0 5.0 2.0 5.0 7.0 5.0 2.0 3.0 4.0 2.0 4.0 4.0 3.0 7.0 2.0 1.0 7.0 5.0 3.0 4.0 3.0 1.0 2.0 3.0 2.0 5.0 5.0 2.0 7.0 4.0 4.0 3.0 5.0 2.0 0.0 5.0 8.0 4.0 
4.0 6.0 6.0 4.0 3.0 2.0 4.0 3.0 4.0 5.0 5.0 5.0 2.0 2.0 3.0 6.0 5.0 5.0 2.0 3.0 3.0 5.0 6.0 2.0 3.0 4.0 3.0 4.0 7.0 2.0 7.0 4.0 6.0 2.0 3.0 2.0 4.0 2.0 5.0 4.0 
3.0 4.0 6.0 3.0 6.0 1.0 4.0 9.0 3.0 3.0 5.0 4.0 3.0 1.0 4.0 2.0 4.0 1.0 3.0 5.0 6.0 7.0 2.0 4.0 6.0 6.0 4.0 4.0 6.0 4.0 6.0 5.0 3.0 3.0 4.0 6.0 4.0 5.0 4.0 3.0 
4.0 3.0 4.0 4.0 2.0 5.0 4.0 3.0 5.0 2.0 4.0 6.0 5.0 3.0 4.0 4.0 5.0 4.0 3.0 6.0 7.0 3.0 7.0 5.0 3.0 3.0 10.0 9.0 5.0 4.0 4.0 0.0 4.0 3.0 2.0 3.0 5.0 2.0 1.0 4.0 
6.0 1.0 2.0 6.0 5.0 4.0 8.0 7.0 4.0 3.0 4.0 5.0 7.0 3.0 1.0 3.0 3.0 4.0 4.0 5.0 5.0 3.0 6.0 3.0 2.0 5.0 5.0 2.0 4.0 5.0 7.0 5.0 0.0 3.0 5.0 4.0 5.0 5.0 4.0 3.0 
4.0 5.0 4.0 7.0 3.0 3.0 2.0 7.0 5.0 4.0 5.0 4.0 5.0 2.0 4.0 3.0 3.0 5.0 3.0 4.0 7.0 4.0 3.0 4.0 2.0 5.0 4.0 7.0 8.0 5.0 4.0 5.0 4.0 1.0 4.0 5.0 4.0 8.0 6.0 6.0 
3.0 3.0 2.0 5.0 6.0 1.0 2.0 3.0 1.0 4.0 5.0 2.0 2.0 2.0 3.0 2.0 1.0 2.0 3.0 3.0 4.0 6.0 2.0 2.0 7.0 5.0 4.0 2.0 4.0 1.0 6.0 5.0 4.0 1.0 6.0 4.0 4.0 7.0 3.0 5.0 
4.0 6.0 4.0 3.0 7.0 5.0 4.0 2.0 2.0 3.0 3.0 2.0 1.0 5.0 3.0 6.0 4.0 6.0 3.0 3.0 4.0 7.0 4.0 4.0 4.0 3.0 3.0 1.0 5.0 3.0 5.0 4.0 3.0 4.0 3.0 5.0 5.0 6.0 5.0 3.0 
3.0 2.0 5.0 3.0 2.0 5.0 3.0 1.0 6.0 4.0 3.0 3.0 4.0 6.0 10.0 2.0 5.0 5.0 6.0 3.0 6.0 5.0 5.0 7.0 3.0 4.0 1.0 6.0 5.0 4.0 5.0 4.0 5.0 4.0 4.0 11.0 5.0 4.0 5.0 5.0 
2.0 3.0 6.0 5.0 4.0 2.0 4.0 7.0 2.0 3.0 7.0 5.0 4.0 2.0 4.0 4.0 4.0 1.0 3.0 3.0 3.0 3.0 7.0 5.0 3.0 3.0 2.0 4.0 2.0 5.0 4.0 4.0 4.0 8.0 7.0 3.0 8.0 4.0 2.0 2.0 
8.0 3.0 4.0 4.0 3.0 2.0 7.0 4.0 4.0 5.0 6.0 3.0 2.0 1.0 2.0 4.0 6.0 3.0 4.0 5.0 1.0 3.0 7.0 3.0 2.0 6.0 6.0 3.0 7.0 4.0 7.0 3.0 5.0 6.0 9.0 5.0 1.0 4.0 7.0 4.0 
6.0 3.0 4.0 6.0 3.0 9.0 8.0 6.0 3.0 5.0 4.0 6.0 6.0 5.0 4.0 1.0 2.0 4.0 2.0 4.0 7.0 6.0 4.0 1.0 3.0 3.0 2.0 6.0 4.0 5.0 4.0 5.0 3.0 6.0 6.0 6.0 3.0 5.0 3.0 0.0 
4.0 5.0 5.0 9.0 5.0 5.0 6.0 1.0 3.0 5.0 5.0 3.0 5.0 2.0 0.0 3.0 2.0 2.0 3.0 3.0 5.0 5.0 2.0 9.0 2.0 3.0 5.0 8.0 4.0 4.0 4.0 4.0 5.0 2.0 2.0 2.0 4.0 4.0 1.0 3.0 