data.lammps (written by ASE) 

8 	 atoms 
2  atom types
0.0      3.8900000000000001  xlo xhi
0.0      3.8900000000000001  ylo yhi
0.0      3.8900000000000001  zlo zhi


Atoms 

     1   2                       0                       0                       0
     2   2                       0      1.9449999999999996      1.9449999999999996
     3   2      1.9449999999999996                       0      1.9449999999999996
     4   2      1.9449999999999996      1.9449999999999996                       0
     5   1      1.9449999999999996                       0                       0
     6   1      1.9449999999999996      1.9449999999999996      1.9449999999999996
     7   1                       0                       0      1.9449999999999996
     8   1                       0      1.9449999999999996                       0
