data.lammps (written by ASE) 

8 	 atoms 
2  atom types
0.0      4.3790144890911362  xlo xhi
0.0      4.3790144890911362  ylo yhi
0.0      4.3790144890911362  zlo zhi


Atoms 

     1   2      1.0947536222727841      3.2842608668183519      3.2842608668183519
     2   2      1.0947536222727841      1.0947536222727841      1.0947536222727841
     3   2      3.2842608668183519      3.2842608668183519      1.0947536222727841
     4   2      3.2842608668183519      1.0947536222727841      3.2842608668183519
     5   1                       0                       0                       0
     6   1                       0      2.1895072445455681      2.1895072445455681
     7   1      2.1895072445455681                       0      2.1895072445455681
     8   1      2.1895072445455681      2.1895072445455681                       0
