
atom_style atomic
units metal
boundary p p p
#atom_modify sort 0 0.0
newton on

read_data data.lammps
Reading data file ...
  orthogonal box = (0 0 0) to (3.89 3.89 3.89)
  1 by 1 by 1 MPI processor grid
  reading atoms ...
  8 atoms
  read_data CPU = 0.002 seconds
replicate 10 10 20
Replicating atoms ...
  orthogonal box = (0 0 0) to (38.9 38.9 77.8)
  1 by 1 by 1 MPI processor grid
  16000 atoms
  replicate CPU = 0.016 seconds

### interactions

pair_style flare
pair_coeff * * lmp.flare
Reading potential file lmp.flare with DATE: Thu

# compute unc all flare/std/atom L_inv_lmp.flare sparse_desc_lmp.flare
# compute MaxUnc all reduce max c_unc

mass 1 12.011000
mass 2 28.085000

thermo_style custom step temp press cpu pxx pyy pzz pxy pxz pyz ke pe etotal vol lx ly lz atoms    #c_MaxUnc
thermo 1000
timestep 0.0005
restart 100000 restart_*.dat

#################### Equilibrate at P and T_es ##############################
velocity all create $T 41928459 rot yes dist gaussian
velocity all create 4400 41928459 rot yes dist gaussian
fix mom all momentum 1000 linear 1 1 1 angular

fix 1 all npt temp $T $T $(100.0*dt) iso $P $P $(1000.0*dt)
fix 1 all npt temp 4400 $T $(100.0*dt) iso $P $P $(1000.0*dt)
fix 1 all npt temp 4400 4400 $(100.0*dt) iso $P $P $(1000.0*dt)
fix 1 all npt temp 4400 4400 0.050000000000000002776 iso $P $P $(1000.0*dt)
fix 1 all npt temp 4400 4400 0.050000000000000002776 iso 900000 $P $(1000.0*dt)
fix 1 all npt temp 4400 4400 0.050000000000000002776 iso 900000 900000 $(1000.0*dt)
fix 1 all npt temp 4400 4400 0.050000000000000002776 iso 900000 900000 0.5
dump 1 all custom 1000 1equil.bin id type x y z vx vy vz
run   10000 # report performance
Neighbor list info ...
  update every 1 steps, delay 10 steps, check yes
  max neighbors/atom: 2000, page size: 100000
  master list distance cutoff = 6
  ghost atom cutoff = 6
  binsize = 6, bins = 7 7 13
  1 neighbor lists, perpetual/occasional/extra = 1 0 0
  (1) pair flare/kk, perpetual
      attributes: full, newton on, kokkos_device
      pair build: full/bin/kk/device
      stencil: full/bin/3d
      bin: kk/device
Per MPI rank memory allocation (min/avg/max) = 17.74 | 17.74 | 17.74 Mbytes
   Step          Temp          Press           CPU            Pxx            Pyy            Pzz            Pxy            Pxz            Pyz           KinEng         PotEng         TotEng         Volume           Lx             Ly             Lz          Atoms   
         0   4400           480859.5       0              480235.49      481143.76      481199.24     -871.61148      393.27617     -984.04576      9099.3455      10000.526      19099.872      117727.74      38.9           38.9           77.8               16000 
      1000   4462.5981      900526.53      7.6088691      906404.15      899679.09      895496.35     -2304.3234     -23.601256      539.85313      9228.8003      19495.196      28723.997      115933.79      38.7014        38.7014        77.4028            16000 
      2000   4412.0869      898101.33      15.189821      900413.02      895190.78      898700.2      -184.1196       1175.9552     -555.55601      9124.3416      19338.639      28462.98       115873.28      38.694666      38.694666      77.389333          16000 
      3000   4379.2695      902682.4       22.772634      905682.92      896820.47      905543.81     -696.18076     -353.92883     -208.64067      9056.474       19409.769      28466.243      115684.91      38.673687      38.673687      77.347373          16000 
      4000   4437.3571      898159.57      30.351915      899285.62      895832.85      899360.24     -98.977284      266.29608     -398.14615      9176.6012      19407.351      28583.952      115887.53      38.696252      38.696252      77.392503          16000 
      5000   4381.775       902622.97      37.932386      905581.16      904576.12      897711.63      1308.8202     -1840.4302     -1301.8508      9061.6556      19441.724      28503.38       115656.9       38.670565      38.670565      77.341129          16000 
      6000   4387.8196      900110.02      45.514789      896990.34      903898.75      899440.97      1010.3939     -628.13291     -644.07911      9074.1561      19434.291      28508.447      115792.96      38.685724      38.685724      77.371447          16000 
      7000   4398.3796      896517.61      53.094165      900465.2       893253.35      895834.27      662.879       -2073.3234      956.46902      9095.9945      19406.468      28502.462      115832.27      38.690101      38.690101      77.380202          16000 
      8000   4399.6658      896973.09      60.675282      895746.51      900636.75      894536.02     -670.03789      524.81257     -1261.2144      9098.6543      19378.303      28476.957      115834.11      38.690305      38.690305      77.38061           16000 
      9000   4429.2827      895364.18      68.2524        901161.03      891039.99      893891.52     -1018.885       575.00932      446.46126      9159.9031      19303.687      28463.59       115854.71      38.692599      38.692599      77.385197          16000 
     10000   4337.5438      900977.86      75.832588      898089.63      905965.38      898878.57     -474.84493      2298.1854      1477.7106      8970.1841      19523.709      28493.893      115848.25      38.69188       38.69188       77.383759          16000 
Loop time of 75.8326 on 8 procs for 10000 steps with 16000 atoms

Performance: 5.697 ns/day, 4.213 hours/ns, 131.869 timesteps/s
61.0% CPU use with 1 MPI tasks x 8 OpenMP threads

MPI task timing breakdown:
Section |  min time  |  avg time  |  max time  |%varavg| %total
---------------------------------------------------------------
Pair    | 72.755     | 72.755     | 72.755     |   0.0 | 95.94
Neigh   | 0.12876    | 0.12876    | 0.12876    |   0.0 |  0.17
Comm    | 0.38496    | 0.38496    | 0.38496    |   0.0 |  0.51
Output  | 0.010769   | 0.010769   | 0.010769   |   0.0 |  0.01
Modify  | 2.3122     | 2.3122     | 2.3122     |   0.0 |  3.05
Other   |            | 0.2413     |            |       |  0.32

Nlocal:          16000 ave       16000 max       16000 min
Histogram: 1 0 0 0 0 0 0 0 0 0
Nghost:          17496 ave       17496 max       17496 min
Histogram: 1 0 0 0 0 0 0 0 0 0
Neighs:              0 ave           0 max           0 min
Histogram: 1 0 0 0 0 0 0 0 0 0
FullNghs:  1.97373e+06 ave 1.97373e+06 max 1.97373e+06 min
Histogram: 1 0 0 0 0 0 0 0 0 0

Total # of neighbors = 1973726
Ave neighs/atom = 123.35788
Neighbor list builds = 330
Dangerous builds = 0
run  990000
Per MPI rank memory allocation (min/avg/max) = 17.86 | 17.86 | 17.86 Mbytes
   Step          Temp          Press           CPU            Pxx            Pyy            Pzz            Pxy            Pxz            Pyz           KinEng         PotEng         TotEng         Volume           Lx             Ly             Lz          Atoms   
     10000   4337.5438      900977.86      0              898089.63      905965.38      898878.57     -474.84493      2298.1854      1477.7106      8970.1841      19523.709      28493.893      115848.25      38.69188       38.69188       77.383759          16000 
     11000   4430.6228      915065.88      7.57865        913921.27      912115.22      919161.15     -2250.6227     -305.11785      28.954857      9162.6744      19581.686      28744.36       115449.95      38.647486      38.647486      77.294973          16000 
     12000   4408.2718      904009.88      15.157252      903742.67      902867.47      905419.51      937.36778      1906.5576      1862.799       9116.4518      19489.896      28606.348      115724.49      38.678096      38.678096      77.356192          16000 
     13000   4369.7886      901917.68      22.73489       902280.37      898278.44      905194.23      142.5445       77.574367     -1686.7207      9036.8673      19403.785      28440.652      115762.46      38.682327      38.682327      77.364653          16000 
     14000   4433.9159      896597.94      30.313544      893039.35      900767.58      895986.89     -969.62732      480.43592      441.94085      9169.4847      19376.353      28545.838      115895.38      38.697125      38.697125      77.394251          16000 
     15000   4429.121       900269.17      37.892192      900357.89      896903.77      903545.86     -1443.6837      930.46273     -833.54037      9159.5686      19377.672      28537.241      115737.92      38.679593      38.679593      77.359186          16000 
     16000   4415.7801      904574.3       45.471904      906050.75      904187.13      903485.02     -101.33726      196.56496      786.69182      9131.9792      19420.803      28552.782      115703.52      38.67576       38.67576       77.351521          16000 
     17000   4366.0217      893498.25      53.04993       892700.57      895737.9       892056.27     -345.4697       293.68779      84.63608       9029.0773      19418.725      28447.802      115956.34      38.703909      38.703909      77.407818          16000 
     18000   4402.8157      898056.57      60.629307      894218.1       899087.67      900863.94      326.86561     -2091.6656     -709.08448      9105.1684      19335.999      28441.167      115734.67      38.67923       38.67923       77.358461          16000 
     19000   4464.3727      902798.33      68.209572      901283.48      903141.71      903969.81     -2650.8991      1735.1047     -59.246806      9232.4702      19367.079      28599.549      115685.46      38.673748      38.673748      77.347495          16000 
     20000   4423.5012      904549.71      75.791096      901037.27      907205.68      905406.2      -287.72286      1015.2404      1209.5572      9147.9467      19445.728      28593.674      115676.7       38.672771      38.672771      77.345542          16000 
     21000   4389.0925      901759.06      83.367527      899851.3       903727.54      901698.35      1632.9862      637.4809       922.91927      9076.7884      19399.338      28476.127      115681.31      38.673285      38.673285      77.346571          16000 
     22000   4359.0255      894257.35      90.947436      895593.6       896203.55      890974.92      795.69404      762.90553      608.36331      9014.6088      19434.212      28448.821      115976.97      38.706205      38.706205      77.41241           16000 
     23000   4417.3307      901029.01      98.524772      901826.07      902174.34      899086.62     -536.12916     -636.27185      1864.5715      9135.1859      19365.7        28500.886      115786.78      38.685035      38.685035      77.370069          16000 
     24000   4410.7994      901461.71      106.10424      903431.16      901506.67      899447.3       541.88429     -107.49896      1437.9453      9121.6789      19511.064      28632.743      115887.89      38.696292      38.696292      77.392585          16000 
     25000   4386.4193      899350.68      113.68245      899126.53      898781.69      900143.81     -1112.4464     -995.06492     -2126.5336      9071.2601      19385.6        28456.86       115744.59      38.680335      38.680335      77.360671          16000 
     26000   4434.6917      899801.68      121.26152      901860.15      899432.15      898112.74     -788.20932      756.25749      879.02725      9171.089       19411.834      28582.923      115787.18      38.685079      38.685079      77.370158          16000 
     27000   4412.2402      905961.2       128.84287      905857.51      906563.65      905462.44     -1230.2629     -774.04702      166.22493      9124.6587      19462.299      28586.958      115616.96      38.666113      38.666113      77.332226          16000 
     28000   4355.4981      897475.85      136.41932      898096.51      894510.07      899820.97     -1206.1861      778.93446      508.18197      9007.3141      19345.399      28352.713      115794.05      38.685844      38.685844      77.371688          16000 
     29000   4375.8798      886810.43      143.99671      889926.62      888259.34      882245.32     -411.21557     -230.00558     -1785.9057      9049.4642      19366.386      28415.85       116127.98      38.722997      38.722997      77.445993          16000 
     30000   4409.4311      898634.94      151.57597      899066.24      899965.78      896872.8       1061.0756     -529.71701      205.76765      9118.8492      19336.14       28454.99       115820.6       38.688801      38.688801      77.377603          16000 
     31000   4425.546       905598.72      159.15554      903958.09      906635.7       906202.37      982.92435     -545.85723      1467.8352      9152.1754      19485.329      28637.504      115704.84      38.675908      38.675908      77.351815          16000 
     32000   4352.4171      901677.71      166.734        904478.03      900399.03      900156.06      616.812       -1323.9936      1083.7931      9000.9424      19370.307      28371.249      115640.5       38.668737      38.668737      77.337473          16000 
     33000   4381.1466      895360.33      174.31299      895505.73      895312.4       895262.86     -968.13229     -1761.0829     -720.94671      9060.356       19423.738      28484.094      115969.93      38.705421      38.705421      77.410843          16000 
     34000   4361.2466      897311.34      181.89072      898646.25      897722.65      895565.13      1211.1137      366.44804      330.30092      9019.2021      19348.445      28367.647      115846.81      38.691719      38.691719      77.383439          16000 
     35000   4426.3823      895604.08      189.46946      896917.83      898025         891869.41      544.46847      600.74703     -2650.6648      9153.905       19303.359      28457.264      115976.09      38.706106      38.706106      77.412212          16000 
     36000   4414.5576      903936.33      197.04673      899029.62      905922.67      906856.71      595.57794      206.94424     -536.80554      9129.4511      19530.298      28659.749      115763.78      38.682473      38.682473      77.364946          16000 
     37000   4417.4879      904961.65      204.62572      909237.34      907079.02      898568.59     -450.55621     -605.02591     -68.522136      9135.5109      19410.805      28546.315      115728.23      38.678513      38.678513      77.357027          16000 
     38000   4403.8507      888017.59      212.20395      890667.22      887629.17      885756.39      252.63648      796.03325      460.40859      9107.3089      19269.768      28377.076      116020.52      38.711049      38.711049      77.422097          16000 
     39000   4405.2175      902297.91      219.78396      903593.45      900605.25      902695.02     -672.47945      1097.4386     -1130.2394      9110.1354      19473.274      28583.409      115794.59      38.685904      38.685904      77.371809          16000 
     40000   4396.1337      904855.61      227.36441      903053.84      911352.04      900160.94      1402.7087      1518.2279      326.99568      9091.3499      19557.167      28648.517      115753.64      38.681344      38.681344      77.362687          16000 
     41000   4380.7647      893146.34      234.94549      896940.06      891009.77      891489.18      455.09501     -948.10157     -2421.4422      9059.5662      19368.636      28428.203      115983.94      38.70698       38.70698       77.41396           16000 
     42000   4354.8565      892707.75      242.52303      893533.69      890729.31      893860.24     -1706.8132      98.464815      334.09854      9005.9873      19285.935      28291.922      115920.07      38.699873      38.699873      77.399747          16000 
     43000   4391.9262      909161.2       250.10043      912071.12      909430.15      905982.34      570.51373      1086.4945      227.55315      9082.6486      19512.173      28594.822      115624.2       38.666921      38.666921      77.333841          16000 
     44000   4416.7018      904745.95      257.67886      907060.51      901797.83      905379.5       791.60703     -377.61414     -525.8018       9133.8853      19546.122      28680.008      115782.68      38.684578      38.684578      77.369156          16000 
     45000   4335.0099      893744.45      265.25547      891572.63      896613.93      893046.79      1555.0774     -323.33348     -156.65971      8964.9437      19374.995      28339.939      115975.2       38.706008      38.706008      77.412016          16000 
     46000   4396.0226      897022.56      272.8319       901792.75      897412.09      891862.85     -236.20593      780.37118     -1005.694       9091.1201      19329.183      28420.303      115868.72      38.694159      38.694159      77.388318          16000 
     47000   4460.5881      892952.51      280.40962      892857.59      895432.35      890567.6      -977.02392      784.61875      1179.7588      9224.6437      19370.674      28595.318      115987.12      38.707334      38.707334      77.414667          16000 
     48000   4418.0182      902409.25      287.98638      904229.25      900924.31      902074.18     -1038.0677      129.72411      746.94533      9136.6077      19423.357      28559.965      115745.91      38.680482      38.680482      77.360965          16000 
     49000   4414.9236      893440.16      295.56727      891572.98      896222.49      892525.01      651.86384     -1118.1337      2191.1601      9130.2079      19283.103      28413.311      115885.29      38.696002      38.696002      77.392005          16000 
     50000   4462.7964      900325.05      303.1426       899736.63      896141.78      905096.74      156.55644     -1228.5299      358.12304      9229.2104      19472.086      28701.297      115865.99      38.693854      38.693854      77.387709          16000 
     51000   4396.587       896609.29      310.71941      899112.66      896104.72      894610.49     -1647.9234      2021.5965      542.7281       9092.2873      19386.8        28479.088      115889.38      38.696458      38.696458      77.392917          16000 
     52000   4333.617       893514.16      318.29502      891898.59      892458.72      896185.18     -2486.8493     -1352.0443      186.5604       8962.0633      19333.859      28295.923      115948.29      38.703014      38.703014      77.406027          16000 
     53000   4420.3965      904320.36      325.87317      904581.34      902518.81      905860.94     -1150.751      -67.130563      869.64087      9141.5262      19387.373      28528.899      115648.99      38.669684      38.669684      77.339367          16000 
     54000   4414.8817      901791.11      333.45206      900219.89      907835.59      897317.84      1313.1942     -225.46219     -1123.8562      9130.1212      19432.614      28562.736      115760.9       38.682153      38.682153      77.364305          16000 
     55000   4386.9468      901567.21      341.02924      900090.3       906415.3       898196.04      1079.4684     -502.03606     -272.9182       9072.351       19444.752      28517.103      115745.96      38.680488      38.680488      77.360976          16000 
     56000   4401.9454      893971.92      348.6069       892642.48      898145.79      891127.5      -538.36968      475.31615     -138.72398      9103.3686      19277.858      28381.227      115850.69      38.692151      38.692151      77.384302          16000 
     57000   4374.8731      903462.3       356.18562      905396.76      907242.95      897747.2      -391.56691      614.48686      489.97103      9047.3821      19514.03       28561.412      115764.87      38.682595      38.682595      77.36519           16000 
     58000   4377.6413      904620.32      363.76583      909504.07      897824.75      906532.12      531.92656      498.92828      568.74082      9053.107       19504.172      28557.279      115691.51      38.674422      38.674422      77.348844          16000 
     59000   4383.8847      895298.52      371.34597      893753.97      897410.36      894731.22     -1144.5524     -1858.4444     -493.14653      9066.0185      19416.125      28482.143      115994.61      38.708167      38.708167      77.416334          16000 
     60000   4407.4418      891808.62      378.92355      892430.6       892038.1       890957.17     -666.24027      842.74643     -266.76411      9114.7355      19328.052      28442.787      116014.18      38.710343      38.710343      77.420687          16000 
     61000   4418.4754      896986.34      386.49983      894369.54      896494.65      900094.83     -932.24876     -1666.0918     -1272.2032      9137.5531      19373.742      28511.295      115881.54      38.695586      38.695586      77.391172          16000 
     62000   4433.6644      915496.31      394.07648      911284.92      916537.3       918666.71     -2249.6733     -357.97608     -274.79108      9168.9645      19585.921      28754.885      115487.18      38.65164       38.65164       77.303279          16000 
     63000   4427.8724      901550.36      401.65386      898471.97      903502.56      902676.56      1391.1208     -1422.1535      433.96355      9156.9865      19426.302      28583.288      115801.6       38.686686      38.686686      77.373372          16000 
     64000   4399.5196      901634.82      409.23007      901377.56      906479.4       897047.51     -1240.1696      858.52518     -748.39303      9098.352       19365.262      28463.614      115753.81      38.681363      38.681363      77.362726          16000 
     65000   4384.1673      896097.88      416.80668      896477.96      899646.08      892169.6       1059.2581      980.80077     -233.95388      9066.6028      19376.17       28442.773      115872.76      38.694608      38.694608      77.389217          16000 
     66000   4416.7936      904282.38      424.38509      909633.82      900994.34      902218.99      1121.3731     -399.00962     -1821.3035      9134.0753      19424.246      28558.322      115771.29      38.68331       38.68331       77.36662           16000 
     67000   4451.6684      893330.31      431.96336      891354.65      893040.75      895595.54      823.90888     -2088.8498      794.03235      9206.1975      19289.528      28495.725      115943.95      38.70253       38.70253       77.405061          16000 
     68000   4377.8908      897470.46      439.54181      896857.16      896718.28      898835.93      552.37908     -134.97221      79.208603      9053.6229      19401.814      28455.437      115876.21      38.694992      38.694992      77.389985          16000 
     69000   4367.2508      907754.7       447.11865      907250.78      908463.32      907550.02     -680.84389     -343.25445     -669.05508      9031.6191      19524.694      28556.313      115651.65      38.66998       38.66998       77.339961          16000 
     70000   4374.2604      901420         454.69644      906974.13      903183.49      894102.38      88.040102     -1535.5741     -349.38075      9046.1151      19429.069      28475.184      115721.12      38.677721      38.677721      77.355441          16000 
     71000   4448.3937      897326.85      462.27377      896271.88      899253.5       896455.17      1638.3396     -115.38083     -1270.7785      9199.4253      19402.646      28602.071      115910.57      38.698816      38.698816      77.397633          16000 
     72000   4366.9511      903844.46      469.8514       904754.43      904619.28      902159.67      1042.6555      15.970538      2083.253       9030.9993      19481.164      28512.163      115772.32      38.683424      38.683424      77.366849          16000 
     73000   4373.8408      911811.46      477.43134      914328.46      910903.45      910202.48      2241.2101      397.30678     -728.20886      9045.2474      19606.94       28652.187      115617.98      38.666226      38.666226      77.332453          16000 
     74000   4365.5237      897164.51      485.00897      894778.54      896539.66      900175.33      627.32058      954.42909     -2262.4725      9028.0473      19349.72       28377.767      115784.68      38.684801      38.684801      77.369602          16000 
     75000   4357.0619      893955.35      492.5846       895345.79      894434.67      892085.59     -863.28537     -1319.5262     -709.89808      9010.5481      19361.594      28372.142      115993.34      38.708025      38.708025      77.416051          16000 
     76000   4425.2375      909940.35      500.16412      913597.27      909861.53      906362.25      627.89862      2154.3225      1597.4145      9151.5374      19561.674      28713.212      115641.68      38.668869      38.668869      77.337738          16000 
     77000   4445.5986      903011.64      507.74236      905093.59      904668.6       899272.72      921.07154      389.66306      524.60041      9193.6449      19384.629      28578.274      115750.9       38.681039      38.681039      77.362077          16000 
     78000   4390.895       893915.48      515.31826      891798.78      894962.86      894984.8       1371.4072      252.18117     -405.70015      9080.516       19358.117      28438.633      115993.93      38.708091      38.708091      77.416182          16000 
     79000   4364.366       897489.04      522.89605      899063.43      893363.7       900039.98      747.97374     -2958.7784     -2172.3166      9025.6532      19343.394      28369.047      115778.5       38.684113      38.684113      77.368226          16000 
     80000   4383.5379      906770.01      530.47268      911362.97      905339.27      903607.8       944.21297     -899.31985     -792.20302      9065.3013      19592.579      28657.881      115695.66      38.674884      38.674884      77.349768          16000 
     81000   4394.2676      912404.68      538.05275      906590.58      912465.03      918158.44     -203.78888     -1174.7362      1007.6216      9087.4906      19478.06       28565.551      115399.28      38.641831      38.641831      77.283662          16000 
     82000   4376.7347      897380.53      545.63108      896441.57      898255.82      897444.21      329.1615      -1377.863       207.90502      9051.2321      19390.612      28441.844      115848.72      38.691932      38.691932      77.383864          16000 
     83000   4417.0667      891260.25      553.2118       890186.87      890689.13      892904.74     -1238.3593     -118.66725      20.198453      9134.6399      19329.108      28463.748      116065.94      38.7161        38.7161        77.432199          16000 
     84000   4378.0789      898096.11      560.78841      899704.98      900043.14      894540.2      -807.8343      -1023.307      -353.61343      9054.0119      19371.206      28425.218      115805.92      38.687167      38.687167      77.374333          16000 
     85000   4395.3404      896277.81      568.36587      891087.33      900702.15      897043.95      739.90102     -628.49915      136.0112       9089.7093      19432.976      28522.685      115967.04      38.7051        38.7051        77.4102            16000 
     86000   4400.1419      900125.15      575.9439       903427.89      903294.31      893653.24      1959.2088     -1170.3537     -432.67885      9099.639       19332.678      28432.316      115704.26      38.675842      38.675842      77.351684          16000 
     87000   4380.2155      907544.44      583.52261      910448.98      905721.46      906462.88      220.77025      264.73228      2389.6568      9058.4305      19440.868      28499.298      115599.38      38.664153      38.664153      77.328306          16000 
     88000   4433.6205      897768.57      591.10027      897149.82      895178.83      900977.05      214.30479      21.469331      1375.7391      9168.8738      19411.462      28580.336      115855.02      38.692633      38.692633      77.385267          16000 
     89000   4420.8864      901353.8       598.67897      907061.32      895813.89      901186.2      -823.53339      681.0366       1067.6857      9142.5393      19351.034      28493.573      115720.79      38.677684      38.677684      77.355368          16000 
     90000   4420.1819      904420.73      606.2574       899034.26      908505.86      905722.06      451.01736      1701.5863     -431.51862      9141.0824      19402.546      28543.628      115701.12      38.675493      38.675493      77.350986          16000 
     91000   4433.7883      892739.37      613.8359       893882.32      895909.78      888426.01      844.04629     -533.8533      -59.574776      9169.2207      19327.533      28496.754      116022.2       38.711236      38.711236      77.422472          16000 
     92000   4369.8134      891412.81      621.41529      890527.48      887826.73      895884.23     -1325.2465      972.93473      3064.083       9036.9186      19300.689      28337.608      115987.22      38.707345      38.707345      77.41469           16000 
     93000   4415.7653      902690.32      628.99315      899242.06      908184.92      900643.99     -791.78398      1618.2744      66.173282      9131.9487      19473.263      28605.212      115773.02      38.683503      38.683503      77.367005          16000 
     94000   4397.8075      902116.43      636.57236      898874.5       907384.02      900090.77     -2020.9756     -926.70368      2125.7454      9094.8113      19459.297      28554.109      115773.84      38.683593      38.683593      77.367187          16000 
     95000   4391.298       897835.05      644.15054      895226.38      897982.57      900296.2       384.74115      220.87448      10.377666      9081.3494      19441.74       28523.089      115877.41      38.695126      38.695126      77.390252          16000 
     96000   4402.8418      899656.87      651.72818      897709.67      900804.83      900456.11      1394.4719     -314.67906     -135.20216      9105.2225      19438.005      28543.227      115830.03      38.689851      38.689851      77.379702          16000 
     97000   4372.365       907543.18      659.3043       910501.26      907944.36      904183.92      147.42112      2165.8371      1843.9559      9042.1953      19446.913      28489.108      115565.41      38.660366      38.660366      77.320732          16000 
     98000   4423.2502      904237.18      666.88347      904785.74      907774.32      900151.48      185.00632     -807.96575      477.89023      9147.4276      19425.866      28573.294      115727.26      38.678406      38.678406      77.356811          16000 
     99000   4397.7136      902645.96      674.46195      900656.2       902442.68      904839         2717.2598      1346.1534     -350.61852      9094.6172      19437.437      28532.055      115713.13      38.676831      38.676831      77.353663          16000 
    100000   4410.5956      900069.94      682.04692      897144.8       901926.08      901138.95     -923.00118      118.22414     -1360.0705      9121.2576      19398.829      28520.086      115817.28      38.688431      38.688431      77.376863          16000 
    101000   4398.5405      892441.67      689.62256      893170.81      895628.71      888525.48      112.75702      650.6689      -979.82197      9096.3272      19315.282      28411.609      115983.19      38.706897      38.706897      77.413794          16000 
    102000   4419.7831      892756.34      697.19968      895488.97      890517.1       892262.94     -2570.5157     -859.69018     -1991.1509      9140.2576      19376.007      28516.265      116074.7       38.717074      38.717074      77.434148          16000 
    103000   4418.9714      899742.26      704.77777      905612.26      896344.1       897270.42      220.86688      803.17001      187.96945      9138.579       19383.941      28522.52       115798.18      38.686305      38.686305      77.372609          16000 
    104000   4381.5459      902108.23      712.3544       898936.06      906362.71      901025.91      988.28682      95.77477       553.29502      9061.1817      19547.553      28608.734      115867.51      38.694024      38.694024      77.388048          16000 
    105000   4430.9559      900593.85      719.93444      904557.37      897255.86      899968.32     -75.037875     -16.646841     -564.20853      9163.3632      19386.654      28550.017      115766.65      38.682793      38.682793      77.365585          16000 
    106000   4433.2288      893420.28      727.51021      888133.04      896740.65      895387.13      265.97331      2094.5254     -897.17056      9168.0637      19357.463      28525.527      115912.41      38.699021      38.699021      77.398042          16000 
    107000   4374.6699      899739.68      735.08664      895733.33      900786.54      902699.16      370.8639       705.42899      254.37819      9046.9619      19407.437      28454.399      115818.14      38.688527      38.688527      77.377055          16000 
    108000   4436.7575      897103.05      742.66551      899325.49      896297.8       895685.86     -792.4134      -1838.0713      617.8827       9175.3611      19388.596      28563.957      115896         38.697194      38.697194      77.394389          16000 
    109000   4378.252       908722.44      750.24266      908772.81      908601.8       908792.71     -753.56326     -2087.198      -1668.5472      9054.3699      19532.109      28586.479      115637.52      38.668405      38.668405      77.336811          16000 
    110000   4426.2663      900412.18      757.82139      901227.54      895788.66      904220.35     -284.58121     -631.91038      818.4419       9153.665       19475.355      28629.021      115794.3       38.685872      38.685872      77.371744          16000 
    111000   4412.284       894570.8       765.39962      898419.3       891763.18      893529.94      1657.9611      419.75865     -953.74388      9124.7492      19354.27       28479.019      115913.56      38.69915       38.69915       77.398299          16000 
    112000   4371.7743      904671.39      772.97951      904910.05      904282.57      904821.55     -407.80361      1087.3855     -1990.1245      9040.9737      19476.672      28517.646      115727.88      38.678475      38.678475      77.356949          16000 
    113000   4432.0511      905087.14      780.558        904025.5       906452.64      904783.28     -981.44371     -1010.8844     -232.75279      9165.6282      19458.163      28623.792      115768.55      38.683004      38.683004      77.366009          16000 
    114000   4392.607       900979.05      788.13402      899335.84      903159.41      900441.89      31.535975     -454.85711      923.98559      9084.0565      19404.545      28488.602      115861.73      38.69338       38.69338       77.38676           16000 
    115000   4380.4037      893757.5       795.71014      897320.04      894630.16      889322.28     -500.35314     -549.24782     -736.26873      9058.8197      19289.564      28348.384      115917.28      38.699563      38.699563      77.399125          16000 
    116000   4378.7879      899080.28      803.28502      894927.56      899446.16      902867.11     -78.060062     -453.43762     -1151.3171      9055.4782      19418.619      28474.097      115839.87      38.690946      38.690946      77.381893          16000 
    117000   4374.6498      894391.91      810.86227      892802.11      894740.05      895633.58      995.03788      1723.4573      545.32307      9046.9205      19410.429      28457.349      116081.54      38.717835      38.717835      77.435669          16000 
    118000   4382.0884      903461.37      818.44163      899646.22      902666.27      908071.64     -50.523584      339.71804      795.73579      9062.3036      19387.361      28449.664      115671.99      38.672247      38.672247      77.344495          16000 
    119000   4391.3093      898943.32      826.01796      899088.11      898728.05      899013.8      -107.18828     -1174.5246      3356.1026      9081.3727      19434.073      28515.445      115903.23      38.697999      38.697999      77.395998          16000 
    120000   4390.5903      896619.19      833.59497      891343.96      899839.31      898674.31     -815.85864     -903.19605      642.06128      9079.8859      19343.766      28423.652      115849.59      38.692028      38.692028      77.384057          16000 
    121000   4394.2835      890387.58      841.16978      893109.27      890314.14      887739.31     -50.472961     -824.76819      157.04722      9087.5235      19304.391      28391.915      115976.02      38.706099      38.706099      77.412198          16000 
    122000   4466.9474      907783.6       848.74595      909079.52      909243.32      905027.95     -388.31763     -917.1709       190.87221      9237.7949      19452.673      28690.468      115618.3       38.666263      38.666263      77.332526          16000 
    123000   4449.6736      906930.75      856.32426      908026.57      907958.1       904807.6      -1280.3885     -543.33131      193.5959       9202.0721      19445.107      28647.179      115609.69      38.665303      38.665303      77.330606          16000 
    124000   4393.1569      894942.35      863.90027      894318.67      898039         892469.37     -501.67811      665.98102     -33.065061      9085.1937      19373.634      28458.828      115937.91      38.701859      38.701859      77.403719          16000 
    125000   4360.7877      897426.03      871.47526      895278.68      898152.47      898846.93     -496.84908     -860.91784     -1154.932       9018.2532      19382.865      28401.118      115845.26      38.691546      38.691546      77.383093          16000 
    126000   4363.3884      901521.46      879.05754      902457.5       894449.34      907657.54     -1073.9484      1391.3904      976.46258      9023.6314      19389.658      28413.29       115680.98      38.673248      38.673248      77.346497          16000 
    127000   4439.8448      908673.86      886.63241      904302.83      911099.56      910619.19     -725.9622       348.77862     -1312.2297      9181.7457      19468.548      28650.294      115640.65      38.668754      38.668754      77.337508          16000 
    128000   4416.6107      891492.55      894.21071      891717.47      888987.7       893772.49      1220.1793     -170.57447     -663.15797      9133.697       19295.809      28429.506      116010.63      38.709949      38.709949      77.419897          16000 
    129000   4391.8589      892662.92      901.78529      893663.43      888544.51      895780.83      1242.1009      217.87954      753.6901       9082.5093      19223.13       28305.64       115924.91      38.700412      38.700412      77.400824          16000 
    130000   4407.6159      900923.67      909.36244      900031.35      899851.87      902887.78     -1114.5777      1189.9143      1259.231       9115.0954      19439.035      28554.131      115756.24      38.681633      38.681633      77.363266          16000 
    131000   4397.3554      906286.46      916.94163      908669.21      901778.01      908412.17      1084.2806     -758.40684      2140.4169      9093.8763      19506.932      28600.808      115648.21      38.669597      38.669597      77.339193          16000 
    132000   4428.8808      894965.54      924.51974      894555.65      894019.15      896321.81     -2069.328      -657.73829      79.129348      9159.072       19425.877      28584.949      115996.56      38.708384      38.708384      77.416768          16000 
    133000   4378.0218      901489.73      932.09788      899494.85      902706.65      902267.7      -1142.1157      30.753038     -1164.72        9053.8938      19431.634      28485.528      115819.1       38.688634      38.688634      77.377268          16000 
    134000   4419.0343      905983.87      939.67697      910210.57      903983.13      903757.91     -1452.7782      1236.8423      1600.1928      9138.7089      19442.926      28581.635      115643.55      38.669077      38.669077      77.338155          16000 
    135000   4422.2892      899010.05      947.25511      895830.77      904096.89      897102.48      835.53747      1926.0358     -1171.6852      9145.4403      19470.258      28615.699      115861.65      38.693372      38.693372      77.386743          16000 
    136000   4378.1596      897239.41      954.83045      900170.65      896728.06      894819.52      972.03912      52.373669      975.92701      9054.1788      19415.868      28470.047      115852.48      38.692351      38.692351      77.384701          16000 
    137000   4379.7763      892588.29      962.40869      897246.52      892660.98      887857.38     -332.63486     -1183.9439      216.24104      9057.5222      19351.573      28409.096      115986.5       38.707265      38.707265      77.41453           16000 
    138000   4445.8028      901611.24      969.98551      902133.48      902424.18      900276.08      1673.4405      115.62638     -597.34777      9194.0673      19407.348      28601.415      115772.41      38.683435      38.683435      77.36687           16000 
    139000   4400.0588      907639.22      977.5616       905922.66      906919.78      910075.23      907.05808      1676.1379      2371.3269      9099.4671      19401.995      28501.462      115533.91      38.656853      38.656853      77.313706          16000 
    140000   4442.095       898573.3       985.14078      896223.11      898443.06      901053.74     -8.6843471      585.34652      2073.3656      9186.3993      19381.049      28567.448      115820.17      38.688753      38.688753      77.377506          16000 
    141000   4389.8091      904767.3       992.71738      907737.87      905199.67      901364.36      172.45425      1368.2611     -1561.8931      9078.2704      19508.918      28587.188      115691.52      38.674423      38.674423      77.348845          16000 
    142000   4408.2163      895701.17      1000.297       890790.9       899138.09      897174.52     -705.55929      172.63829     -1067.3155      9116.3371      19231.661      28347.998      115769.66      38.683128      38.683128      77.366256          16000 
    143000   4406.2457      910009.13      1007.8751      908141.38      910818.9       911067.1       1069.0324      752.03571      742.65183      9112.2617      19491.076      28603.337      115516.88      38.654954      38.654954      77.309907          16000 
    144000   4437.4705      892910.62      1015.4526      890931.27      893242.11      894558.49      648.08767     -1670.7011     -917.87242      9176.8358      19293.546      28470.382      115982.73      38.706846      38.706846      77.413691          16000 
    145000   4384.8128      886919.88      1023.0312      889708.53      889270.42      881780.69      376.55256     -264.53493      494.42749      9067.9379      19333.231      28401.168      116132.59      38.723509      38.723509      77.447018          16000 
    146000   4436.2365      903827.98      1030.6099      903846         903382.29      904255.67      1296.8262      1509.3511     -327.72272      9174.2837      19441.045      28615.328      115686.01      38.673809      38.673809      77.347618          16000 
    147000   4418.8954      897670.48      1038.1891      897602.61      895983.9       899424.92     -584.3453      -755.90679     -694.24598      9138.4218      19394.854      28533.276      115878.26      38.69522       38.69522       77.39044           16000 
    148000   4383.2025      897751.93      1045.7645      898261.67      898729.36      896264.74      988.31447     -979.26737     -453.99107      9064.6077      19361.898      28426.506      115829.82      38.689827      38.689827      77.379655          16000 
    149000   4429.1512      899007.52      1053.3413      899170.3       900682.17      897170.09      2891.3506      342.07427     -314.32699      9159.631       19391.177      28550.808      115827.6       38.689581      38.689581      77.379162          16000 
    150000   4409.8574      910928.34      1060.9186      910919.45      908719.52      913146.04      867.433       -1455.638       858.8071       9119.7309      19570.136      28689.867      115572.65      38.661173      38.661173      77.322345          16000 
    151000   4388.6869      896068.52      1068.4955      896994.15      895608.98      895602.44     -1344.5804     -749.5239       670.38778      9075.9497      19400.395      28476.344      115887.46      38.696244      38.696244      77.392488          16000 
    152000   4376.229       901681.27      1076.0734      899767.87      904179.97      901095.98     -925.05784     -623.75588      519.36315      9050.1863      19416.341      28466.528      115736.75      38.679462      38.679462      77.358924          16000 
    153000   4412.7157      907697.02      1083.6539      905592.56      909318.75      908179.76     -501.84731     -398.39847     -546.39261      9125.6419      19506.452      28632.094      115657.7       38.670655      38.670655      77.341309          16000 
    154000   4411.5849      904713.69      1091.2311      904662.33      903917.8       905560.93      917.26264     -1131.6541      189.59921      9123.3033      19395.793      28519.096      115648.35      38.669612      38.669612      77.339223          16000 
    155000   4426.3661      901299.72      1098.8083      898955.57      900511.55      904432.03      853.87441     -1674.7312     -788.04435      9153.8715      19372.785      28526.656      115738.07      38.679609      38.679609      77.359218          16000 
    156000   4402.9162      897748.08      1106.3866      895158.09      900765.33      897320.81     -705.70269      338.58194     -1462.1768      9105.3763      19378.84       28484.216      115785.4       38.684881      38.684881      77.369762          16000 
    157000   4417.3037      902857.71      1113.9616      903281.09      901111.59      904180.45     -641.02991      167.40844     -252.70652      9135.1301      19487.597      28622.727      115795.07      38.685958      38.685958      77.371917          16000 
    158000   4416.1732      902726.64      1121.5408      901727.07      905480.78      900972.06     -1579.3163     -833.52154      1084.8427      9132.7922      19403.226      28536.018      115634.94      38.668117      38.668117      77.336234          16000 
    159000   4359.1883      903160.69      1129.1188      903945.31      903989.85      901546.9      -1031.4029     -186.88947      214.81987      9014.9456      19492.69       28507.636      115747.88      38.680702      38.680702      77.361404          16000 
    160000   4430.0175      899480.6       1136.6966      899262.05      898871.75      900308         178.49866     -35.042316      385.57742      9161.4227      19384.28       28545.702      115835.4       38.690449      38.690449      77.380899          16000 
    161000   4398.5636      905207.59      1144.2723      910099.04      901189.34      904334.38     -1676.6335      1913.8406     -1179.1584      9096.375       19450.202      28546.577      115671.07      38.672145      38.672145      77.344289          16000 
    162000   4453.7039      902068.36      1151.8499      901416.71      899188.21      905600.15      461.48894      189.91137      1055.4401      9210.407       19395.314      28605.721      115729.08      38.678608      38.678608      77.357216          16000 
    163000   4415.6259      901078.47      1159.4291      901532.21      903801.29      897901.9       417.87782      1522.2361     -570.05153      9131.6604      19431.587      28563.247      115819.02      38.688625      38.688625      77.377249          16000 
    164000   4317.028       892752.77      1167.006       889205.22      895712.74      893340.35      691.49175     -621.32362      850.69493      8927.7565      19368.537      28296.294      115969.99      38.705428      38.705428      77.410856          16000 
    165000   4435.7013      892972.29      1174.5835      895199.33      895115.06      888602.48     -445.49002      1751.2584      294.4457       9173.177       19408.929      28582.106      116089.05      38.718669      38.718669      77.437339          16000 
    166000   4387.9612      905564.09      1182.1604      904123.49      906717.45      905851.34      725.77971      400.13128     -1267.9965      9074.4489      19419.678      28494.127      115642.1       38.668915      38.668915      77.33783           16000 
    167000   4383.1617      902340.34      1189.7393      902993.84      897648.53      906378.65     -887.69482      1333.2788      1159.7571      9064.5232      19507.716      28572.24       115779.24      38.684195      38.684195      77.36839           16000 
    168000   4401.4313      902851.11      1197.3184      906466.66      901494.06      900592.61      326.67808      334.8579      -134.69682      9102.3054      19476.136      28578.441      115753.22      38.681298      38.681298      77.362595          16000 
    169000   4430.6736      897464.58      1204.9022      892711.84      896043.15      903638.75     -71.666103     -1203.9867     -34.309682      9162.7794      19358.521      28521.3        115750.98      38.681048      38.681048      77.362095          16000 
    170000   4403.5872      905113.64      1212.4797      903882.91      902539.62      908918.38      999.98657      1332.6717      1734.4591      9106.764       19550.163      28656.927      115778.6       38.684124      38.684124      77.368249          16000 
    171000   4366.3213      899860.88      1220.0604      896256.62      901472.18      901853.85     -154.47627     -785.84787      1881.6785      9029.6968      19455.802      28485.499      115859.74      38.693158      38.693158      77.386317          16000 
    172000   4380.1341      880800.6       1227.6419      885285.78      873534.87      883581.15     -526.21364     -931.79684     -1089.7464      9058.2621      19160.665      28218.927      116195.36      38.730484      38.730484      77.460968          16000 
    173000   4415.2136      901850.17      1235.2187      903144.73      901903.97      900501.81      128.67081     -1251.7112      425.79547      9130.8078      19403.943      28534.751      115725.78      38.67824       38.67824       77.35648           16000 
    174000   4402.2524      910032.19      1242.7991      909985.62      912586.72      907524.22     -1066.3263     -1051.3156     -1190.4907      9104.0036      19508.534      28612.537      115574.66      38.661397      38.661397      77.322794          16000 
    175000   4439.6868      894989.48      1250.3761      891317.14      892907.79      900743.49     -734.17756      223.28472      897.20462      9181.419       19314.984      28496.403      115866.14      38.693871      38.693871      77.387742          16000 
    176000   4400.397       900145.63      1257.953       901354.53      902870.73      896211.65     -902.13121     -1798.1979      63.426757      9100.1664      19384.88       28485.046      115785.14      38.684852      38.684852      77.369704          16000 
    177000   4412.4417      898935.91      1265.5298      900679.53      895678.43      900449.78      934.27225     -1570.4291     -30.411119      9125.0754      19401.242      28526.318      115826.24      38.68943       38.68943       77.378859          16000 
    178000   4407.8079      903862.55      1273.1049      906987.74      899394.1       905205.82      63.445254      2158.1744      28.031923      9115.4924      19411.106      28526.599      115684.87      38.673682      38.673682      77.347363          16000 
    179000   4398.6906      896525.56      1280.6836      896010.27      892925.63      900640.77     -374.19852      560.70305      636.54723      9096.6375      19248.079      28344.716      115726.86      38.678361      38.678361      77.356722          16000 
    180000   4406.2375      908306.02      1288.2612      908341.36      907547.91      909028.79      856.79211      1335.5797      517.39032      9112.2448      19560.837      28673.082      115654.44      38.670291      38.670291      77.340583          16000 
    181000   4396.1538      895627.98      1295.839       895655         891297.07      899931.86     -1352.8862     -1248.1799     -1283.4257      9091.3915      19362.442      28453.834      115909.88      38.698739      38.698739      77.397479          16000 
    182000   4381.9953      898823.78      1303.4165      897508.44      899813.44      899149.45      1456.4417      13.946418     -288.49103      9062.1112      19344.362      28406.473      115719.12      38.677498      38.677498      77.354997          16000 
    183000   4397.7912      904515.87      1310.9964      903641.24      906240.78      903665.57     -705.98291     -585.9377       1378.3808      9094.7775      19454.725      28549.502      115721.51      38.677765      38.677765      77.355529          16000 
    184000   4389.7723      899334.53      1318.5734      900271.85      896621.77      901109.96      883.34474     -675.09924      305.38312      9078.1943      19461.559      28539.753      115926.7       38.700612      38.700612      77.401223          16000 
    185000   4370.8996      893634.03      1326.15        893482.93      892719.26      894699.9       1073.7974      706.37656      2300.6697      9039.1649      19329.005      28368.169      115887.7       38.696271      38.696271      77.392542          16000 
    186000   4403.7585      893023.7       1333.7284      893965.89      893424.62      891680.59     -727.56411     -600.79472      1642.8724      9107.1181      19360.564      28467.682      115977.78      38.706295      38.706295      77.41259           16000 
    187000   4395.2905      892663.3       1341.3061      891071.87      895196.1       891721.92     -814.96779      4.2141944      995.72783      9089.6062      19208.278      28297.884      115869.58      38.694254      38.694254      77.388508          16000 
    188000   4430.13        907605.69      1348.8845      909396.95      906623.88      906796.25      119.49136      527.45792      855.48449      9161.6554      19495.209      28656.864      115658.06      38.670695      38.670695      77.341389          16000 
    189000   4396.4298      898490.55      1356.4629      904169.64      896960.05      894341.95     -225.24615     -1430.2852     -2311.8277      9091.9621      19427.253      28519.215      115843.21      38.691318      38.691318      77.382637          16000 
    190000   4374.52        905782.48      1364.041       905460         908061.71      903825.72      705.11313      871.98313     -12.63594       9046.6521      19465.312      28511.964      115672.39      38.672292      38.672292      77.344583          16000 
    191000   4441.0518      907151.55      1371.6176      911235.89      903834.16      906384.59      537.87696      1252.9593      258.54698      9184.2419      19477.845      28662.087      115715.05      38.677045      38.677045      77.354089          16000 
    192000   4395.0906      906753.22      1379.1982      906848.78      912570.71      900840.18     -831.24568     -839.53954     -1806.3366      9089.1926      19492.966      28582.158      115648.99      38.669683      38.669683      77.339367          16000 
    193000   4411.2036      895718.41      1386.7743      893699.18      894149.79      899306.25      594.23715      70.553236      726.46918      9122.5149      19281.946      28404.461      115837.32      38.690662      38.690662      77.381325          16000 
    194000   4376.8332      888381.05      1394.3516      890630.1       885593.08      888919.96      617.23103     -555.06299      129.14972      9051.4357      19331.379      28382.815      116080.08      38.717672      38.717672      77.435345          16000 
    195000   4384.9627      902121.65      1401.9294      905435.36      902454.28      898475.31     -308.25686      116.52606      1552.3038      9068.2478      19436.206      28504.454      115761.68      38.682239      38.682239      77.364479          16000 
    196000   4395.1204      909358.52      1409.5073      907383.28      912940.99      907751.31     -598.5598      -325.43328      790.89071      9089.2543      19430.001      28519.255      115507.61      38.653919      38.653919      77.307838          16000 
    197000   4390.0947      897829.77      1417.086       901265.12      895470.78      896753.4      -1751.2432     -557.11623      193.7224       9078.8609      19414.735      28493.596      115884.09      38.695869      38.695869      77.391738          16000 
    198000   4403.4485      902051.05      1424.6625      900900.93      897388.64      907863.6       486.2871       101.29457      681.62654      9106.4771      19449.159      28555.636      115714.86      38.677023      38.677023      77.354046          16000 
    199000   4397.7821      901010.3       1432.2431      905401.31      898852.53      898777.04      189.75476      602.09821     -1223.4695      9094.7587      19348.277      28443.036      115677.93      38.672909      38.672909      77.345818          16000 
    200000   4390.7881      897281.27      1439.824       897596.59      898346         895901.22      1183.8503     -1569.1185     -596.08248      9080.295       19358.555      28438.85       115832.9       38.690171      38.690171      77.380341          16000 
    201000   4406.2999      892230.33      1447.3985      887462.85      892947.22      896280.92      1573.4874      1398.7922      401.25009      9112.3738      19401.134      28513.508      116056.63      38.715064      38.715064      77.430128          16000 
    202000   4423.2724      897614         1454.9743      891950.09      898666.2       902225.69     -1137.8106      444.81834     -1838.7283      9147.4735      19363.48       28510.954      115878.22      38.695216      38.695216      77.390432          16000 
    203000   4405.2162      902716.31      1462.5506      905692.23      901422.25      901034.45     -923.94901     -1985.8495     -590.85302      9110.1328      19409.981      28520.113      115695.96      38.674918      38.674918      77.349836          16000 
    204000   4403.6897      900182.27      1470.1273      897007.76      897336.76      906202.3       1187.6262     -305.82922      973.65732      9106.976       19477.016      28583.992      115876.2       38.694991      38.694991      77.389982          16000 
    205000   4364.1714      894294.15      1477.7054      897752.86      895483.66      889645.94      513.71681      173.67117     -2013.1449      9025.2506      19319.448      28344.699      115910.53      38.698811      38.698811      77.397623          16000 
    206000   4367.3206      891283.28      1485.2791      890160.71      892826.23      890862.89     -978.39352     -188.46655     -1862.9479      9031.7633      19315.157      28346.92       116000.63      38.708836      38.708836      77.417672          16000 
    207000   4354.4221      907298.4       1492.8565      904048.74      911527.64      906318.81      1764.8876     -1520.5042     -610.51431      9005.089       19498.236      28503.325      115627.31      38.667267      38.667267      77.334533          16000 
    208000   4455.7466      900492.24      1500.435       902171.15      900051.53      899254.06     -368.28967      687.24664      1457.5383      9214.6312      19396.419      28611.051      115827.49      38.689568      38.689568      77.379136          16000 
    209000   4388.7051      897576.85      1508.0113      892798.59      897914.4       902017.57      854.84583     -780.99394     -1613.1282      9075.9872      19371.818      28447.805      115801.4       38.686663      38.686663      77.373326          16000 
    210000   4430.9081      893308.44      1515.5863      891696.13      892514.42      895714.78      232.85322      346.13724     -202.80869      9163.2645      19359.511      28522.775      116014.84      38.710417      38.710417      77.420835          16000 
    211000   4376.2542      904488.37      1523.1633      907999.73      902105.83      903359.54     -1460.2055     -382.32239      1599.9207      9050.2384      19451.691      28501.929      115720.61      38.677664      38.677664      77.355328          16000 
    212000   4409.2466      904901.78      1530.7402      903379.32      906005.38      905320.62      873.05084      1544.3606     -1442.1851      9118.4678      19531.692      28650.16       115739.36      38.679754      38.679754      77.359507          16000 
    213000   4424.9435      903184.43      1538.3183      903122.14      901042.93      905388.23      1250.7643      861.17476      945.71758      9150.9294      19407.29       28558.22       115686         38.673808      38.673808      77.347616          16000 
    214000   4370.7934      898425.63      1545.8951      899072.52      898669.13      897535.23     -612.7266      -428.611        1549.8464      9038.9452      19466.758      28505.703      115881.52      38.695583      38.695583      77.391167          16000 
    215000   4431.6206      897931.22      1553.4727      898868.68      900748.58      894176.4       2905.8116      977.51301     -318.37192      9164.738       19355.731      28520.469      115767.35      38.682871      38.682871      77.365741          16000 
    216000   4409.3441      899139.13      1561.0524      897596.89      898545.3       901275.21     -1464.011      -2111.3419     -389.11043      9118.6695      19397.063      28515.733      115801.65      38.686691      38.686691      77.373382          16000 
    217000   4372.9954      889641.5       1568.627       891924.75      886408.74      890591.01     -371.42698     -588.46425      1470.7169      9043.4992      19294.127      28337.626      116030.75      38.712187      38.712187      77.424373          16000 
    218000   4376.6648      896638.21      1576.2025      898114.63      894819.3       896980.7      -521.55709      985.2886      -680.92323      9051.0875      19370.332      28421.419      115895.01      38.697084      38.697084      77.394168          16000 
    219000   4396.9312      902819.41      1583.7807      904922.82      902961.13      900574.29     -2910.1582      1958.774       2205.9589      9092.9991      19475.181      28568.18       115777.02      38.683948      38.683948      77.367897          16000 
    220000   4383.6992      906301.6       1591.3581      909165.82      902872.39      906866.6      -23.954477      2169.6334     -227.11378      9065.635       19488.6        28554.235      115671.28      38.672167      38.672167      77.344334          16000 
    221000   4391.1833      899817.52      1598.9375      899640.55      896519.52      903292.48      175.90115     -1186.4749     -426.98015      9081.1123      19373.252      28454.364      115815.17      38.688196      38.688196      77.376392          16000 
    222000   4417.5207      902129.82      1606.5117      901831.26      903671.01      900887.19     -1152.0156     -1316.3181      1166.1532      9135.5788      19463.952      28599.531      115799.33      38.686433      38.686433      77.372865          16000 
    223000   4386.4227      899088.43      1614.088       899445.97      897613.28      900206.03      969.8343       287.79622     -1268.806       9071.2671      19388.86       28460.128      115807.64      38.687358      38.687358      77.374717          16000 
    224000   4368.7767      894511.03      1621.6658      893666.65      899081.78      890784.66      829.55481     -890.83116     -861.28172      9034.7746      19292.116      28326.891      115854.15      38.692536      38.692536      77.385072          16000 
    225000   4399.0007      918708.42      1629.2441      921865.41      922354.01      911905.85      2380.4344      309.38087     -857.32552      9097.2789      19600.544      28697.823      115435.17      38.645837      38.645837      77.291674          16000 
    226000   4408.1961      901513.79      1636.823       898929.38      903991.32      901620.68      1910.4815     -994.84967      1612.2082      9116.2952      19451.754      28568.05       115790.76      38.685478      38.685478      77.370957          16000 
    227000   4379.0555      902360.96      1644.4008      900571.5       904620.03      901891.36     -93.522103      276.66363      854.38177      9056.0316      19448.343      28504.375      115716.2       38.677172      38.677172      77.354345          16000 
    228000   4353.336       900255.09      1651.9776      899995.74      896247.67      904521.85     -506.65146      1050.7848     -454.46848      9002.8427      19384.965      28387.807      115735.26      38.679296      38.679296      77.358593          16000 
    229000   4397.7068      901006.42      1659.5572      898760.88      900907.86      903350.53     -918.56085      218.32838      193.17388      9094.6031      19447.691      28542.294      115776.33      38.683871      38.683871      77.367741          16000 
    230000   4459.6065      911022.94      1667.1359      907270.5       914915.66      910882.65      723.1987       1510.4285      732.1491       9222.6136      19531.213      28753.827      115620.07      38.66646       38.66646       77.33292           16000 
    231000   4404.6295      897280.91      1674.7133      895492.46      896717.54      899632.73      46.457138     -1234.6771     -352.04936      9108.9195      19376.869      28485.788      115864.77      38.693719      38.693719      77.387437          16000 
    232000   4386.1653      891123.51      1682.2941      887787.37      893443.29      892139.87      1397.8714      1633.7552      639.79825      9070.7348      19380.335      28451.069      116039.25      38.713131      38.713131      77.426263          16000 
    233000   4373.5604      901466.3       1689.8708      901446.15      903523.86      899428.9      -961.12908     -1193.2401      710.69487      9044.6675      19424.222      28468.89       115722.26      38.677848      38.677848      77.355696          16000 
    234000   4439.957       901189.21      1697.45        900517.28      899813.15      903237.2      -879.85328     -2725.101      -460.7376       9181.9778      19421.2        28603.178      115777.85      38.68404       38.68404       77.36808           16000 
    235000   4405.1277      895327.25      1705.0271      893795.91      898536.94      893648.91     -4.6344063      1058.9054      800.14039      9109.9498      19334.95       28444.9        115879.3       38.695336      38.695336      77.390672          16000 
    236000   4343.6699      901392.72      1712.6048      906671.21      900700.11      896806.83      2106.4008     -993.05129     -1278.4336      8982.853       19464.887      28447.74       115775.17      38.683741      38.683741      77.367483          16000 
    237000   4434.6523      903779.6       1720.183       901366.94      907041.01      902930.86     -1519.094       354.05949      1902.0556      9171.0076      19500.281      28671.289      115789.36      38.685322      38.685322      77.370645          16000 
    238000   4387.745       899738.11      1727.7587      904416.9       897107.76      897689.68     -1284.3957      1156.8238      458.77979      9074.0016      19343.428      28417.43       115795.82      38.686041      38.686041      77.372083          16000 
    239000   4430.0649      891513.75      1735.3366      890042.1       892511.02      891988.13     -1073.6796      864.40586      1115.0019      9161.5207      19323.026      28484.547      116006.46      38.709485      38.709485      77.418969          16000 
    240000   4393.0239      904322.12      1742.9149      908236.18      900332.25      904397.92      475.93154     -937.17417     -103.43707      9084.9187      19415.719      28500.638      115661.09      38.671032      38.671032      77.342063          16000 
    241000   4398.0909      900784.59      1750.4917      902106.96      895548.26      904698.55     -1645.1572     -249.59584     -511.26759      9095.3973      19430.114      28525.511      115796.57      38.686125      38.686125      77.37225           16000 
    242000   4403.8385      897377.76      1758.0678      895678.78      896522.19      899932.3      -203.96331     -460.00029      390.19151      9107.2835      19385.286      28492.57       115880.75      38.695498      38.695498      77.390995          16000 
    243000   4386.3844      897031.47      1765.6466      899570.69      896722.09      894801.61      163.75593     -72.824066     -993.75195      9071.1879      19360.121      28431.308      115864.87      38.69373       38.69373       77.387459          16000 
    244000   4370.3615      901577.11      1773.2239      899312.72      910381.98      895036.63     -698.60034     -899.21699     -601.74653      9038.052       19385.62       28423.672      115675.25      38.67261       38.67261       77.34522           16000 
    245000   4388.3254      902170.15      1780.8007      899077.53      907315.09      900117.84      717.16015     -1876.9383     -658.83273      9075.2019      19489.211      28564.413      115845.35      38.691557      38.691557      77.383115          16000 
    246000   4441.4515      900369.45      1788.3777      897791.28      902700.48      900616.59      1079.304       46.338188     -510.8567       9185.0685      19424.721      28609.79       115838.7       38.690816      38.690816      77.381632          16000 
    247000   4387.4732      906769.04      1795.9581      906590.51      909884.03      903832.59      1291.1985     -288.59646     -673.68744      9073.4396      19451.075      28524.515      115629.63      38.667525      38.667525      77.33505           16000 
    248000   4414.7345      894815.61      1803.5352      892872.77      894740.61      896833.44     -411.33747      1083.8986     -57.197812      9129.8169      19319.874      28449.691      115944.08      38.702545      38.702545      77.405091          16000 
    249000   4402.831       894533.75      1811.1127      898297.16      894495.82      890808.28      1785.6679      1257.0278      1010.7106      9105.2         19325.814      28431.014      115890.48      38.696581      38.696581      77.393161          16000 
    250000   4453.6079      897832.42      1818.6885      900073.28      891187.96      902236        -70.527083     -400.30305      758.83123      9210.2085      19467.111      28677.319      115921.09      38.699987      38.699987      77.399975          16000 
    251000   4397.9217      899582.91      1826.266       894340.87      898185.25      906222.62      591.43361     -745.43502      541.47725      9095.0474      19354.469      28449.517      115764.51      38.682555      38.682555      77.365109          16000 
    252000   4395.5208      900495.55      1833.8451      906864.02      902601.51      892021.12      1057.4199      336.80842      555.64022      9090.0824      19374.725      28464.808      115719.31      38.677519      38.677519      77.355039          16000 
    253000   4434.9278      897349.52      1841.4232      902562.81      899087.15      890398.59      1489.2636     -840.6819      -88.710937      9171.5773      19439.964      28611.541      115928.5       38.700812      38.700812      77.401624          16000 
    254000   4363.1105      898595.66      1848.9994      900286.29      892446.09      903054.6      -1413.9808     -330.80323      242.82272      9023.0568      19419.288      28442.345      115777.63      38.684016      38.684016      77.368032          16000 
    255000   4406.5609      905517.92      1856.5759      898106.24      908883.84      909563.68      698.40135     -311.67236     -849.48499      9112.9136      19458.008      28570.922      115706.16      38.676054      38.676054      77.352108          16000 
    256000   4414.6953      909087.26      1864.1521      907411.19      914995.42      904855.15      21.880773      832.19334      423.55618      9129.7359      19566.485      28696.221      115644.81      38.669218      38.669218      77.338435          16000 
    257000   4374.1631      905073.36      1871.7283      904764.06      909053.39      901402.61      564.20561      438.62444     -1747.0367      9045.9138      19491.082      28536.996      115733.28      38.679076      38.679076      77.358152          16000 
    258000   4383.1313      897268.91      1879.3062      896356.17      895713.78      899736.77      1.2739682     -414.89336      945.89146      9064.4604      19340.242      28404.703      115882.11      38.695649      38.695649      77.391297          16000 
    259000   4452.5732      901368.22      1886.8844      900812.25      896661.88      906630.54     -708.18433     -1124.5254      854.61907      9208.0685      19460.774      28668.843      115909.32      38.698677      38.698677      77.397354          16000 
    260000   4345.2528      903870.22      1894.4615      908225.01      895835.37      907550.28      885.93092      552.49885     -183.88631      8986.1264      19463.019      28449.145      115711.29      38.676626      38.676626      77.353253          16000 
    261000   4390.2144      899673.49      1902.0374      898781.72      898292.04      901946.72      818.56988      168.07327     -108.35156      9079.1085      19451.974      28531.082      115855.99      38.692741      38.692741      77.385482          16000 
    262000   4410.8019      903368.11      1909.6121      900837.75      905979.27      903287.3       1799.8812      1588.0896      1674.065       9121.6842      19496.209      28617.893      115809.3       38.687543      38.687543      77.375087          16000 
    263000   4422.9377      902416.37      1917.1882      901201.86      904365.21      901682.06      1069.3221     -591.71305     -653.80206      9146.7815      19397.226      28544.008      115701.47      38.675532      38.675532      77.351064          16000 
    264000   4401.5951      896647.8       1924.7686      896014.8       900819.3       893109.31     -1318.5965      331.72806     -973.47989      9102.6442      19365.701      28468.345      115863.97      38.693629      38.693629      77.387259          16000 
    265000   4347.5958      895016.18      1932.3428      892896.81      899970.47      892181.25     -159.23664      3264.8215     -1257.6927      8990.9719      19339.632      28330.604      115890.64      38.696598      38.696598      77.393196          16000 
    266000   4381.1459      900006.39      1939.9173      904953.51      897464.26      897601.39      986.91411     -835.07959      244.45156      9060.3546      19469.395      28529.75       115869.12      38.694202      38.694202      77.388405          16000 
    267000   4374.2061      900317.12      1947.4955      899140.21      899813.03      901998.11     -921.01903      630.36958     -681.06336      9046.0029      19314.196      28360.199      115655.32      38.670388      38.670388      77.340777          16000 
    268000   4430.7589      893849.95      1955.0719      889599.34      895227.11      896723.39     -742.09623      441.08984     -800.65578      9162.9559      19352.329      28515.285      115925.99      38.700532      38.700532      77.401064          16000 
    269000   4383.9759      898758.67      1962.6502      904988.62      899893.86      891393.53      492.86915     -2082.7733     -973.60058      9066.2071      19391.215      28457.422      115810.2       38.687643      38.687643      77.375286          16000 
    270000   4387.2431      890446.97      1970.2274      889645.07      885454.11      896241.73     -1347.69        685.96397     -139.85239      9072.9638      19285.416      28358.38       115966.02      38.704986      38.704986      77.409972          16000 
    271000   4439.3453      899868.67      1977.8049      897366.2       901458.23      900781.58      2701.867      -29.693715     -1357.6372      9180.7129      19356.048      28536.761      115710.85      38.676577      38.676577      77.353154          16000 
    272000   4397.0291      910647.34      1985.3836      910279.42      914472.81      907189.8      -165.72675      1440.1032      1181.4062      9093.2016      19581.564      28674.765      115588.67      38.662959      38.662959      77.325917          16000 
    273000   4392.8489      898920.8       1992.9609      900498.24      898819.07      897445.09      1059.8618      1209.8241      612.08228      9084.5567      19349.377      28433.934      115770.2       38.683188      38.683188      77.366376          16000 
    274000   4375.918       903021.11      2000.5379      904763.13      903952.53      900347.68     -1129.0517      1162.0362      475.03154      9049.5431      19436.12       28485.663      115801.2       38.686641      38.686641      77.373282          16000 
    275000   4417.6581      897710.08      2008.1148      895301.59      897371.5       900457.14     -1442.7953      36.753363      2027.0035      9135.8631      19434.327      28570.19       115960.91      38.704417      38.704417      77.408835          16000 
    276000   4396.7374      896207.77      2015.6885      896257.25      897929.52      894436.55      775.35377     -923.75229     -76.89722       9092.5984      19358.48       28451.079      115855.8       38.69272       38.69272       77.38544           16000 
    277000   4421.2246      891073.13      2023.2636      895958.8       884424.58      892836.02     -1522.0129     -222.07849     -1230.2602      9143.2385      19299.725      28442.963      116022.05      38.711219      38.711219      77.422438          16000 
    278000   4379.3247      895699.11      2030.8375      891977.94      902746.67      892372.71     -1228.0153     -1492.0779     -394.45439      9056.5883      19402.678      28459.267      115947.63      38.70294       38.70294       77.40588           16000 
    279000   4409.1009      900564.85      2038.4136      898516.68      900383.7       902794.18     -2065.6146     -827.78499     -475.97184      9118.1665      19449.396      28567.562      115784.65      38.684798      38.684798      77.369596          16000 
    280000   4392.0778      898772.09      2045.9905      899500.54      897744.8       899070.93      190.15981      857.48799      322.67747      9082.9621      19412.314      28495.276      115857.37      38.692895      38.692895      77.38579           16000 
    281000   4323.3234      895985.76      2053.5686      893841.18      899825.07      894291.04     -909.25476      685.38083      126.11061      8940.7758      19459.871      28400.647      115934.17      38.701443      38.701443      77.402886          16000 
    282000   4402.7328      897664.01      2061.1471      897501.65      896902.5       898587.9      -389.38557     -617.03866     -140.96737      9104.9971      19378.318      28483.315      115876.01      38.694969      38.694969      77.389939          16000 
    283000   4435.8241      909505.2       2068.7245      912941.51      906445.13      909128.97      544.97675      316.39925     -380.10193      9173.4308      19397.742      28571.173      115490.27      38.651985      38.651985      77.30397           16000 
    284000   4412.4468      903883.06      2076.3019      903589.6       899505.71      908553.87     -931.75797      581.37088      827.92279      9125.0858      19509.239      28634.325      115740.17      38.679843      38.679843      77.359686          16000 
    285000   4379.5164      895443.9       2083.8799      893535.02      895762.66      897034.01     -228.4942      -560.83445     -793.2187       9056.9847      19391.179      28448.164      115824.79      38.689267      38.689267      77.378535          16000 
[...]
   3930000   4862.9798      895638.36      6624.8133      914650.41      917816.14      854448.52     -257.62528      1254.0534     -601.30315      10056.803      20358.164      30414.967      117362.66      38.678898      38.678898      78.44798           16000 
   3931000   4848.5333      890685.47      6631.9279      906271.36      905129.23      860655.83      2655.2043     -392.28846      954.76447      10026.927      20336.195      30363.122      117455.41      38.689084      38.689084      78.46864           16000 
   3932000   4851.2588      895487.76      6639.0476      913962.07      909647.71      862853.51     -251.19055      180.28012      784.58862      10032.564      20388.644      30421.208      117351.22      38.677641      38.677641      78.445432          16000 
   3933000   4818.0371      900030.76      6646.1658      916030.62      915961.05      868100.61     -249.67661     -1246.8685     -3262.3266      9963.8599      20498.964      30462.824      117275.09      38.669276      38.669276      78.428465          16000 
   3934000   4875.6448      895360.13      6653.2807      912717.73      916176.63      857186.01     -282.57159     -279.04518     -1978.6538      10082.995      20350.069      30433.063      117325.88      38.674856      38.674856      78.439783          16000 
   3935000   4893.0573      893397.47      6660.3954      912770.92      916124.9       851296.57      522.32497     -2199.5307      535.99937      10119.004      20291.995      30410.999      117363.45      38.678985      38.678985      78.448156          16000 
   3936000   4808.4944      890775.14      6667.511       912239.92      904681.01      855404.5      -1676.8267     -2498.0914     -728.28398      9944.1254      20399.987      30344.113      117483.15      38.69213       38.69213       78.474817          16000 
   3937000   4827.5012      891732.33      6674.6271      906371.79      906567.05      862258.15      1511.5024     -2043.1663      1734.28        9983.4321      20373.274      30356.706      117455.37      38.68908       38.68908       78.468632          16000 
   3938000   4844.179       895036.74      6681.7412      921090.61      908201.76      855817.84     -713.23625     -2338.7605      403.31813      10017.922      20413.59       30431.512      117320.61      38.674278      38.674278      78.438611          16000 
   3939000   4839.0914      903878.34      6688.8562      919476.63      919250.42      872907.97     -1196.0019      252.79198      556.68932      10007.401      20520.495      30527.896      117145.59      38.655036      38.655036      78.399584          16000 
   3940000   4873.3689      901679.5       6695.9721      926047.57      909545.59      869445.34     -1736.8961      857.57986      2002.9795      10078.288      20452.719      30531.008      117138.64      38.654272      38.654272      78.398035          16000 
   3941000   4872.4777      908930.67      6703.088       930843.04      925538.86      870410.12     -681.38081     -3579.3948     -600.55111      10076.445      20533.376      30609.821      116997.73      38.638767      38.638767      78.366587          16000 
   3942000   4871.3799      905921.64      6710.205       922732.81      921811.32      873220.79     -1031.6434     -1442.0769     -973.83245      10074.175      20496.853      30571.028      117064.23      38.646085      38.646085      78.38143           16000 
   3943000   4880.4621      900463.28      6717.3196      917791.31      919763.96      863834.58     -523.73907      819.04573      1055.9774      10092.957      20426.636      30519.593      117154.29      38.655993      38.655993      78.401526          16000 
   3944000   4847.5443      898152.76      6724.4376      921506.69      909769.27      863182.31      837.4668      -1778.8676      16.009141      10024.882      20420.055      30444.937      117286.34      38.670512      38.670512      78.430973          16000 
   3945000   4845.4811      895244.93      6731.5537      915724.22      914465.92      855544.66      333.51518      353.17057      1187.7679      10020.615      20365.758      30386.373      117390.66      38.681974      38.681974      78.454218          16000 
   3946000   4844.222       889239.62      6738.6675      907569.98      903477.86      856671.01      116.13954     -296.28969     -1353.5719      10018.011      20313.889      30331.9        117486.06      38.692449      38.692449      78.475464          16000 
   3947000   4821.447       897188.4       6745.784       914618.14      914641.35      862305.7      -2217.7316      2072.8261     -2783.3843      9970.9118      20444.096      30415.008      117334.39      38.675792      38.675792      78.44168           16000 
   3948000   4849.8607      900129.59      6752.8993      925657.93      916536.81      858194.03      1870.7584      1040.9948     -2987.9265      10029.672      20447.46       30477.132      117221.34      38.663367      38.663367      78.41648           16000 
   3949000   4865.4872      902742.88      6760.0141      922899.4       918375.32      866953.92     -1840.4063     -822.6413      -2242.3388      10061.988      20456.882      30518.87       117147.08      38.655201      38.655201      78.399919          16000 
   3950000   4838.5139      906650.9       6767.1274      927632.09      923446.25      868874.37      733.28873     -1237.1581      1510.268       10006.207      20550.478      30556.685      117079.68      38.647786      38.647786      78.384879          16000 
   3951000   4849.3196      906736.1       6774.2417      924380.49      924348.31      871479.52     -1035.1381      1894.0155     -1265.8344      10028.553      20554.39       30582.943      117032.01      38.64254       38.64254       78.37424           16000 
   3952000   4910.1982      896956.45      6781.3579      916438.53      916074.86      858355.95     -1002.7988     -1191.4163     -3096.5787      10154.452      20323.86       30478.312      117217.06      38.662896      38.662896      78.415526          16000 
   3953000   4873.112       894359.87      6788.4722      909235.88      910588.33      863255.41     -2090.5311      286.17798     -458.38221      10077.757      20340.155      30417.912      117324.25      38.674677      38.674677      78.43942           16000 
   3954000   4823.8882      897867.33      6795.5891      918584.26      915343.18      859674.56     -487.28459     -240.76832     -276.68465      9975.9604      20452.569      30428.53       117304.78      38.672538      38.672538      78.435081          16000 
   3955000   4793.4706      901091.55      6802.7064      919728.32      914831.21      868715.12     -269.7159       1510.6161     -1710.5888      9913.0557      20539.519      30452.575      117259.03      38.66751       38.66751       78.424883          16000 
   3956000   4881.6736      904215.99      6809.8223      922487.25      917289.82      872870.91     -1504.5709      1306.2235      92.231616      10095.462      20437.27       30532.733      117114.66      38.651634      38.651634      78.392685          16000 
   3957000   4865.0871      907610.99      6816.9384      930098.67      923248.07      869486.24     -148.3811       1021.0303      631.88036      10061.161      20509.081      30570.242      117047.81      38.644278      38.644278      78.377765          16000 
   3958000   4846.6902      910755.12      6824.0548      929791.01      927164.82      875309.55     -393.49633     -1718.3664      2909.8337      10023.116      20577.822      30600.938      116991.43      38.638073      38.638073      78.365179          16000 
   3959000   4866.1411      902775.74      6831.1687      918995.26      918166.61      871165.35     -492.89448      1095.7534      1929.1581      10063.341      20453.948      30517.288      117138.09      38.654212      38.654212      78.397913          16000 
   3960000   4890.2695      897078.11      6838.2865      914840.27      910749.48      865644.58     -430.05504      360.16496      1251.4498      10113.239      20323.759      30436.998      117280.05      38.66982       38.66982       78.429569          16000 
   3961000   4844.8069      896067.11      6845.4045      915839.4       912899.71      859462.2      -404.85426      165.50427     -797.93658      10019.221      20393.627      30412.848      117321.68      38.674395      38.674395      78.438848          16000 
   3962000   4868.7455      896387.18      6852.5213      914441.71      917722.65      856997.17      420.09153     -1499.0951      810.81615      10068.727      20357.452      30426.178      117297.31      38.671717      38.671717      78.433416          16000 
   3963000   4868.5375      899224.81      6859.6392      919884.12      917406.42      860383.91     -2235.8896     -1955.2761      8.3455257      10068.296      20387.433      30455.73       117242.26      38.665667      38.665667      78.421145          16000 
   3964000   4865.5958      901737.14      6866.7543      927295.7       913930.02      863985.71      1488.4323     -1814.2072      2035.4989      10062.213      20466.111      30528.324      117111.76      38.651315      38.651315      78.392038          16000 
   3965000   4907.2456      907330.83      6873.8691      925134.9       926977.54      869880.04     -1121.0401      468.07069      775.47807      10148.346      20431.061      30579.408      117020.93      38.64132       38.64132       78.371765          16000 
   3966000   4836.007       905266.14      6880.987       924338.13      925991.49      865468.79     -265.01223     -2592.8601      390.58903      10001.022      20535.187      30536.21       117097.21      38.649714      38.649714      78.38879           16000 
   3967000   4878.4228      898131.51      6888.102       912508.75      918438.54      863447.24      1420.6641     -2453.8357      217.08032      10088.74       20371.013      30459.752      117232.62      38.664607      38.664607      78.418995          16000 
   3968000   4819.9892      892372.65      6895.217       913287.19      910353.59      853477.15     -28.714638     -433.65949      489.47718      9967.897       20379.89       30347.787      117429.98      38.686292      38.686292      78.462977          16000 
   3969000   4854.4167      893510.9       6902.3318      908646.45      914706.02      857180.23     -1481.9918      1516.8079     -424.02134      10039.094      20341.406      30380.5        117367.95      38.679479      38.679479      78.449159          16000 
   3970000   4840.9549      896891.19      6909.4489      916073.31      909707.01      864893.24     -2473.6639      661.39859     -1075.1734      10011.255      20403.971      30415.226      117304.86      38.672547      38.672547      78.435099          16000 
   3971000   4887.665       899165.6       6916.5665      924820.78      914109.6       858566.42      1143.4396     -669.07862     -2071.9369      10107.853      20381.138      30488.99       117172.55      38.658002      38.658002      78.405599          16000 
   3972000   4841.7798      912902.48      6923.6824      934653.3       930621.87      873432.27      1897.3278     -3841.1554     -93.941554      10012.961      20601.503      30614.464      116947.77      38.633266      38.633266      78.35543           16000 
   3973000   4884.3515      907306.05      6930.7971      920531.85      929683.69      871702.63      249.62008     -2984.328       2112.5504      10101          20477.914      30578.914      117008.3       38.63993       38.63993       78.368946          16000 
   3974000   4885.8698      903075.62      6937.9144      920685.32      921110.8       867430.74     -1111.2402     -312.96273     -1218.2225      10104.14       20404.9        30509.04       117131.32      38.653467      38.653467      78.396402          16000 
   3975000   4865.0681      904228.3       6945.0298      922077.42      919396.66      871210.81     -719.33824     -217.12886      1541.9189      10061.122      20440.292      30501.414      117142.13      38.654656      38.654656      78.398814          16000 
   3976000   4860.9632      901425.34      6952.1449      924140.85      921887.61      858247.58      1164.1217      401.77046      1194.553       10052.633      20440.279      30492.911      117156.45      38.656231      38.656231      78.402007          16000 
   3977000   4823.1741      898633.85      6959.2607      914032.16      918448.29      863421.1      -398.89523      856.41919      317.64048      9974.4836      20457.368      30431.852      117263.26      38.667976      38.667976      78.425828          16000 
   3978000   4833.5743      897406.26      6966.3752      917160.82      912791.44      862266.52      1889.6        -135.79101      338.62375      9995.9916      20404.784      30400.776      117317.75      38.673964      38.673964      78.437973          16000 
   3979000   4854.4162      894653.34      6973.4904      915489.87      910991.46      857478.67     -1611.8571      2049.3566     -2430.6345      10039.093      20385.21       30424.303      117273.94      38.669149      38.669149      78.428207          16000 
   3980000   4888.801       897067.01      6980.6088      906281.15      922868.15      862051.73     -2666.9731     -2360.4105     -1686.2076      10110.202      20330.499      30440.701      117243.99      38.665857      38.665857      78.42153           16000 
   3981000   4841.5269      904851.64      6987.7242      927150.49      920750.16      866654.26     -2270.4537     -592.60153      624.17058      10012.438      20481.613      30494.05       117147.57      38.655255      38.655255      78.400027          16000 
   3982000   4874.8089      907265.33      6994.8406      924189.43      925092.71      872513.85     -123.33769      4270.2468      1435.4581      10081.266      20468.765      30550.031      117046.19      38.644101      38.644101      78.377405          16000 
   3983000   4838.5241      901532.26      7001.9556      925043.76      915566.67      863986.34     -2019.6902      1114.7346     -1275.0713      10006.228      20489.832      30496.06       117141.48      38.654584      38.654584      78.398668          16000 
   3984000   4853.0989      902333         7009.0712      918229.95      921417.8       867351.24      299.68069     -1193.7298     -715.92959      10036.369      20443.704      30480.073      117169.62      38.657679      38.657679      78.404945          16000 
   3985000   4866.9634      899638.84      7016.1857      917201.51      917663.91      864051.1       403.35662     -1831.4481      2312.3147      10065.041      20380.671      30445.713      117230.48      38.664372      38.664372      78.418519          16000 
   3986000   4844.2917      890923.09      7023.3014      908226.52      911507.67      853035.07     -1297.5637      2872.6494     -1852.1662      10018.155      20292.103      30310.259      117471.96      38.690901      38.690901      78.472325          16000 
   3987000   4833.9834      889962.24      7030.4175      906911.85      906628.38      856346.48     -2663.599      -499.4414      -1764.2782      9996.8375      20360.554      30357.391      117385.85      38.681446      38.681446      78.453147          16000 
   3988000   4853.22        897938.89      7037.5327      917574.18      917103.47      859139.02     -1929.2746      1094.5656      1866.8507      10036.619      20386.133      30422.752      117268.23      38.668521      38.668521      78.426934          16000 
   3989000   4851.3357      897234.31      7044.6502      917556.52      917038.49      857107.93     -218.67494     -1803.1336     -3545.082       10032.723      20398.166      30430.889      117252.87      38.666833      38.666833      78.423511          16000 
   3990000   4857.5977      901395.18      7051.7676      928712.9       917037.25      858435.38      237.72537      511.6256      -550.027        10045.673      20435.863      30481.535      117161.48      38.656784      38.656784      78.40313           16000 
   3991000   4846.3804      909644.28      7058.8854      931936.08      922693.53      874303.23     -564.28046     -243.62526      402.1192       10022.475      20563.576      30586.051      116975.24      38.636291      38.636291      78.361565          16000 
   3992000   4854.318       909900.53      7066.0018      927985.66      933477.94      868238         857.0258       399.55401     -961.27105      10038.89       20540.859      30579.749      116985.25      38.637393      38.637393      78.3638            16000 
   3993000   4873.415       904257.94      7073.1206      919350.27      923766.31      869657.22     -1164.5158     -348.71671     -430.53922      10078.383      20431.062      30509.445      117108.44      38.65095       38.65095       78.391297          16000 
   3994000   4842.2203      901660.58      7080.2343      921196.23      919135.42      864650.09      601.40953      552.15218     -3148.368       10013.872      20448.91       30462.782      117191.62      38.660098      38.660098      78.409851          16000 
   3995000   4855.294       898703.91      7087.3508      915559.99      912817.12      867734.64     -19.405732      1370.3075     -1514.2571      10040.908      20388.76       30429.669      117250.45      38.666567      38.666567      78.422971          16000 
   3996000   4860.5898      901172.39      7094.4661      924724.18      911867.76      866925.25      1638.1618      646.10092      384.91914      10051.86       20399.013      30450.873      117212.03      38.662343      38.662343      78.414405          16000 
   3997000   4884.0121      893432.69      7101.5824      914169.41      907144.88      858983.8       1430.5118     -1663.3801      3380.3459      10100.299      20318.037      30418.336      117269.77      38.66869       38.66869       78.427277          16000 
   3998000   4841.9548      889296.99      7108.7001      905744.44      907899.94      854246.58      1336.7389      338.88596      2345.1439      10013.323      20286.712      30300.034      117480.13      38.691799      38.691799      78.474145          16000 
   3999000   4906.2309      891355.76      7115.8184      914578.84      903641.04      855847.4       926.07836     -573.92163      1885.2754      10146.248      20216.476      30362.723      117367.19      38.679396      38.679396      78.44899           16000 
   4000000   4878.1403      897494.2       7122.9403      914920.83      918082.79      859478.98     -9.9548443      924.00385     -1219.3499      10088.155      20346.433      30434.589      117238.36      38.665238      38.665238      78.420275          16000 
Loop time of 7122.94 on 8 procs for 1000000 steps with 16000 atoms

Performance: 6.065 ns/day, 3.957 hours/ns, 140.391 timesteps/s
60.0% CPU use with 1 MPI tasks x 8 OpenMP threads

MPI task timing breakdown:
Section |  min time  |  avg time  |  max time  |%varavg| %total
---------------------------------------------------------------
Pair    | 6846.7     | 6846.7     | 6846.7     |   0.0 | 96.12
Neigh   | 12.81      | 12.81      | 12.81      |   0.0 |  0.18
Comm    | 38.636     | 38.636     | 38.636     |   0.0 |  0.54
Output  | 1.0564     | 1.0564     | 1.0564     |   0.0 |  0.01
Modify  | 200.42     | 200.42     | 200.42     |   0.0 |  2.81
Other   |            | 23.27      |            |       |  0.33

Nlocal:          16000 ave       16000 max       16000 min
Histogram: 1 0 0 0 0 0 0 0 0 0
Nghost:          16681 ave       16681 max       16681 min
Histogram: 1 0 0 0 0 0 0 0 0 0
Neighs:              0 ave           0 max           0 min
Histogram: 1 0 0 0 0 0 0 0 0 0
FullNghs:  1.94354e+06 ave 1.94354e+06 max 1.94354e+06 min
Histogram: 1 0 0 0 0 0 0 0 0 0

Total # of neighbors = 1943544
Ave neighs/atom = 121.4715
Neighbor list builds = 35135
Dangerous builds = 0
Total wall time: 8:20:30
