
atom_style atomic
units metal
boundary p p p
#atom_modify sort 0 0.0
newton on

read_data data.lammps
Reading data file ...
  orthogonal box = (0 0 0) to (3.89 3.89 3.89)
  1 by 1 by 1 MPI processor grid
  reading atoms ...
  8 atoms
  read_data CPU = 0.002 seconds
replicate 10 10 20
Replicating atoms ...
  orthogonal box = (0 0 0) to (38.9 38.9 77.8)
  1 by 1 by 1 MPI processor grid
  16000 atoms
  replicate CPU = 0.007 seconds

### interactions

pair_style flare
pair_coeff * * lmp.flare
Reading potential file lmp.flare with DATE: Thu

# compute unc all flare/std/atom L_inv_lmp.flare sparse_desc_lmp.flare
# compute MaxUnc all reduce max c_unc

mass 1 12.011000
mass 2 28.085000

thermo_style custom step temp press cpu pxx pyy pzz pxy pxz pyz ke pe etotal vol lx ly lz atoms    #c_MaxUnc
thermo 1000
timestep 0.0005
restart 100000 restart_*.dat

#################### Equilibrate at P and T_es ##############################
velocity all create $T 41928459 rot yes dist gaussian
velocity all create 4200 41928459 rot yes dist gaussian
fix mom all momentum 1000 linear 1 1 1 angular

fix 1 all npt temp $T $T $(100.0*dt) iso $P $P $(1000.0*dt)
fix 1 all npt temp 4200 $T $(100.0*dt) iso $P $P $(1000.0*dt)
fix 1 all npt temp 4200 4200 $(100.0*dt) iso $P $P $(1000.0*dt)
fix 1 all npt temp 4200 4200 0.050000000000000002776 iso $P $P $(1000.0*dt)
fix 1 all npt temp 4200 4200 0.050000000000000002776 iso 900000 $P $(1000.0*dt)
fix 1 all npt temp 4200 4200 0.050000000000000002776 iso 900000 900000 $(1000.0*dt)
fix 1 all npt temp 4200 4200 0.050000000000000002776 iso 900000 900000 0.5
dump 1 all custom 1000 1equil.bin id type x y z vx vy vz
run   10000 # report performance
Neighbor list info ...
  update every 1 steps, delay 10 steps, check yes
  max neighbors/atom: 2000, page size: 100000
  master list distance cutoff = 6
  ghost atom cutoff = 6
  binsize = 6, bins = 7 7 13
  1 neighbor lists, perpetual/occasional/extra = 1 0 0
  (1) pair flare/kk, perpetual
      attributes: full, newton on, kokkos_device
      pair build: full/bin/kk/device
      stencil: full/bin/3d
      bin: kk/device
Per MPI rank memory allocation (min/avg/max) = 17.74 | 17.74 | 17.74 Mbytes
   Step          Temp          Press           CPU            Pxx            Pyy            Pzz            Pxy            Pxz            Pyz           KinEng         PotEng         TotEng         Volume           Lx             Ly             Lz          Atoms   
         0   4200           477106.94      0              476511.3       477378.28      477431.24     -831.99278      375.39998     -939.31641      8685.7389      10000.526      18686.265      117727.74      38.9           38.9           77.8               16000 
      1000   4275.9832      899180.37      7.585859       904459.62      898833.06      894248.43     -2309.2953     -1022.2667      1122.1255      8842.8746      19192.344      28035.219      115491.56      38.652128      38.652128      77.304257          16000 
      2000   4184.018       898723.81      15.134851      897879.97      900337.64      897953.82      1488.8517     -1327.854      -1842.1792      8652.6875      19093.788      27746.475      115380.4       38.639724      38.639724      77.279448          16000 
      3000   4192.013       900241.36      22.684593      899417.99      902408.88      898897.2       221.15304      1461.9827     -384.54626      8669.2215      19094.121      27763.342      115289.83      38.629611      38.629611      77.259221          16000 
      4000   4237.3407      899072.61      30.236004      894179.21      901647.01      901391.62      174.7141       1051.5547      89.026666      8762.9606      19105.057      27868.017      115435.06      38.645825      38.645825      77.291649          16000 
      5000   4178.0183      905618.96      37.783607      905454.99      905707.02      905694.88     -31.868988      198.19488     -686.74987      8640.28        19150.543      27790.823      115216.35      38.621402      38.621402      77.242804          16000 
      6000   4203.872       898859.98      45.331469      898675.97      899675.35      898228.61      505.73036     -1234.2928     -34.597143      8693.7463      19120.596      27814.342      115371.67      38.63875       38.63875       77.277499          16000 
      7000   4187.2299      898233.58      52.880046      899677.63      896449.41      898573.7      -292.45307     -757.12368      911.50596      8659.3298      19109.505      27768.835      115384.28      38.640157      38.640157      77.280314          16000 
      8000   4173.8091      895045.67      60.428418      893424.95      896250.33      895461.74      15.062575      798.03599      17.064758      8631.5752      19090.312      27721.887      115378.55      38.639517      38.639517      77.279035          16000 
      9000   4225.8656      906771.08      67.976499      908623.16      906595.24      905094.85      1796.5684     -1262.0109     -734.16268      8739.2297      19189.356      27928.586      115234.54      38.623434      38.623434      77.246869          16000 
     10000   4172.2643      909257.14      75.52704       907274.36      911527.25      908969.81      2187.2638     -1622.8766     -666.01652      8628.3804      19257.217      27885.598      115115.99      38.610185      38.610185      77.220371          16000 
Loop time of 75.5271 on 8 procs for 10000 steps with 16000 atoms

Performance: 5.720 ns/day, 4.196 hours/ns, 132.403 timesteps/s
60.5% CPU use with 1 MPI tasks x 8 OpenMP threads

MPI task timing breakdown:
Section |  min time  |  avg time  |  max time  |%varavg| %total
---------------------------------------------------------------
Pair    | 72.539     | 72.539     | 72.539     |   0.0 | 96.04
Neigh   | 0.12291    | 0.12291    | 0.12291    |   0.0 |  0.16
Comm    | 0.35569    | 0.35569    | 0.35569    |   0.0 |  0.47
Output  | 0.01048    | 0.01048    | 0.01048    |   0.0 |  0.01
Modify  | 2.2607     | 2.2607     | 2.2607     |   0.0 |  2.99
Other   |            | 0.2387     |            |       |  0.32

Nlocal:          16000 ave       16000 max       16000 min
Histogram: 1 0 0 0 0 0 0 0 0 0
Nghost:          17679 ave       17679 max       17679 min
Histogram: 1 0 0 0 0 0 0 0 0 0
Neighs:              0 ave           0 max           0 min
Histogram: 1 0 0 0 0 0 0 0 0 0
FullNghs:  1.99329e+06 ave 1.99329e+06 max 1.99329e+06 min
Histogram: 1 0 0 0 0 0 0 0 0 0

Total # of neighbors = 1993292
Ave neighs/atom = 124.58075
Neighbor list builds = 317
Dangerous builds = 0
run  990000
Per MPI rank memory allocation (min/avg/max) = 17.86 | 17.86 | 17.86 Mbytes
   Step          Temp          Press           CPU            Pxx            Pyy            Pzz            Pxy            Pxz            Pyz           KinEng         PotEng         TotEng         Volume           Lx             Ly             Lz          Atoms   
     10000   4172.2643      909257.14      0              907274.36      911527.25      908969.81      2187.2638     -1622.8766     -666.01652      8628.3804      19257.217      27885.598      115115.99      38.610185      38.610185      77.220371          16000 
     11000   4189.6045      894047.13      7.5486049      891570.28      895820.13      894750.99      280.76256     -2240.7755      633.59068      8664.2406      19081.445      27745.686      115440.66      38.64645       38.64645       77.292899          16000 
     12000   4164.4988      901264.63      15.097079      906968.24      895829.17      900996.49     -1615.3018      1889.1068      576.60829      8612.3212      19185.737      27798.058      115352.8       38.636642      38.636642      77.273285          16000 
     13000   4170.2151      903991.96      22.643781      905651.54      899953.75      906370.59      2153.6083     -1085.6403     -320.61203      8624.1427      19113.594      27737.737      115136.65      38.612495      38.612495      77.22499           16000 
     14000   4193.12        895856.62      30.189532      898823.44      889322.44      899423.97     -1338.3913     -898.83289      1277.9349      8671.5108      19063.81       27735.32       115389.84      38.640778      38.640778      77.281556          16000 
     15000   4157.4751      896935.81      37.738945      896342.52      898542.69      895922.23      221.10583      217.6078       133.7909       8597.7959      19048.052      27645.848      115380.93      38.639783      38.639783      77.279567          16000 
     16000   4175.5413      903855.76      45.290005      902162.36      905116.58      904288.33     -856.18955     -1105.4915     -1291.0981      8635.1574      19227.35       27862.507      115299.95      38.630741      38.630741      77.261481          16000 
     17000   4209.6236      902797.42      52.839122      903370.74      903274.84      901746.69     -189.99442     -0.61557056     28.563114      8705.6409      19150.369      27856.01       115279.14      38.628417      38.628417      77.256833          16000 
     18000   4196.355       900548.27      60.387647      898847.27      899449.62      903347.91      610.54298     -1677.3936      592.37441      8678.2009      19079.107      27757.308      115239.36      38.623973      38.623973      77.247946          16000 
     19000   4211.1488      901375.14      67.93579       900562.5       897929.46      905633.44      133.26234      826.07392     -512.32519      8708.7949      19084.807      27793.602      115262.6       38.626569      38.626569      77.253138          16000 
     20000   4162.5661      903170.05      75.484331      900017.9       904274.21      905218.05     -911.54559     -1095.934      -176.69086      8608.3244      19228.215      27836.54       115308.15      38.631657      38.631657      77.263315          16000 
     21000   4203.1155      904420.97      83.033089      905176.22      909165.55      898921.14     -1358.8723     -331.62793      447.458        8692.1818      19133.391      27825.572      115240.95      38.62415       38.62415       77.248301          16000 
     22000   4203.1417      889515.58      90.5802        886289.43      888119.5       894137.81     -331.78019      41.976884     -397.32479      8692.2359      19017.272      27709.508      115590.52      38.663166      38.663166      77.326331          16000 
     23000   4188.9833      898809         98.129664      897144.14      903365.09      895917.77     -1699.7732     -2343.8867      1.7711605      8662.956       19074.107      27737.063      115350.27      38.63636       38.63636       77.27272           16000 
     24000   4161.8712      908293         105.68194      912851.12      907071.28      904956.6       892.69536     -2544.6366     -1139.3203      8606.8872      19319.559      27926.446      115287.76      38.62938       38.62938       77.25876           16000 
     25000   4150.1865      899066.75      113.23114      902170.69      895218.64      899810.94      133.59294      2838.9704     -1239.039       8582.7229      19180.391      27763.114      115357.63      38.637182      38.637182      77.274364          16000 
     26000   4206.8527      895036.64      120.77944      894458.62      895361.73      895289.57     -1297.893      -379.9385      -504.01811      8699.9105      19124.228      27824.139      115521.26      38.655442      38.655442      77.310884          16000 
     27000   4195.0089      901377.37      128.32612      899781.85      899640.11      904710.16      589.39275      1163.7902      495.76062      8675.417       19116.087      27791.504      115275.33      38.627991      38.627991      77.255982          16000 
     28000   4183.24        903080.51      135.87435      903792.65      903910.71      901538.16      624.26935      136.21344      52.030847      8651.0785      19211.907      27862.986      115292.26      38.629882      38.629882      77.259765          16000 
     29000   4233.4943      901331.66      143.42511      902009.44      902970.12      899015.44      584.94256     -848.65242     -1922.9507      8755.0061      19082.82       27837.826      115272.35      38.627658      38.627658      77.255316          16000 
     30000   4141.3929      896481.07      150.97293      899210.53      896152.15      894080.54     -1489.8003     -1486.4399     -801.54366      8564.5375      19085.085      27649.622      115349         38.636218      38.636218      77.272437          16000 
     31000   4205.524       892892.51      158.52058      891665.14      895303.63      891708.77     -718.16032      480.34545     -45.228711      8697.1627      19032.229      27729.391      115495.28      38.652544      38.652544      77.305088          16000 
     32000   4259.7331      908015.83      166.0697       904507.96      909882.98      909656.56      2410.2105     -1178.4737     -2279.9005      8809.2688      19204.775      28014.044      115171.64      38.616406      38.616406      77.232812          16000 
     33000   4189.1226      897524.68      173.61825      891022.85      898307.03      903244.15      609.8589      -10.855527      1166.6754      8663.244       19112.836      27776.08       115411.49      38.643194      38.643194      77.286387          16000 
     34000   4214.1185      890240.25      181.16585      886775.2       893281.6       890663.94     -7.7846097      1188.5494      447.45997      8714.9363      18967.694      27682.63       115519.18      38.655209      38.655209      77.310419          16000 
     35000   4251.9661      901422.36      188.71435      902532.37      899577.46      902157.24      1504.4836      1010.8587      1516.5227      8793.2065      19129.787      27922.994      115341.12      38.635338      38.635338      77.270676          16000 
     36000   4200.9498      903723.69      196.2632       909802.85      901572.18      899796.04     -1409.9746     -2284.4945     -215.69098      8687.7031      19091.835      27779.538      115249.61      38.625118      38.625118      77.250236          16000 
     37000   4203.1446      906625.69      203.81356      903258.51      909897.59      906720.98      221.05845     -414.11237      2498.6629      8692.242       19260.25       27952.492      115341.27      38.635355      38.635355      77.27071           16000 
     38000   4195.9132      894359         211.36353      896282.25      891953.39      894841.35      363.38057      387.25295      358.20497      8677.2871      19089.772      27767.059      115422.82      38.644458      38.644458      77.288917          16000 
     39000   4145.7727      891878.99      218.90897      887972.62      893667.94      893996.42      1553.5146      1020.2661     -1250.4394      8573.595       19065.43       27639.025      115500.65      38.653143      38.653143      77.306285          16000 
     40000   4228.0239      899662.56      226.46072      897668.93      899952.89      901365.85     -775.48387      934.67214      1048.5345      8743.6933      19117.608      27861.301      115449.56      38.647443      38.647443      77.294885          16000 
     41000   4197.6771      901288.07      234.00763      901450.27      900283.49      902130.45     -2271.0631      89.20815      -2877.0911      8680.9349      19129.022      27809.957      115266.35      38.626988      38.626988      77.253976          16000 
     42000   4225.6852      898112.11      241.55541      897980.22      894751.33      901604.77     -92.410481      1585.2987      98.42706       8738.8568      19081.462      27820.318      115404.09      38.642368      38.642368      77.284737          16000 
     43000   4197.5811      908244.25      249.10363      906994.4       907266.38      910471.96      142.00347     -874.16161     -424.02582      8680.7366      19180.153      27860.89       115171.2       38.616357      38.616357      77.232713          16000 
     44000   4207.3701      902211.97      256.65229      899305.57      901911.66      905418.67      661.26345      714.52597     -453.55109      8700.9806      19139.663      27840.643      115245.35      38.624643      38.624643      77.249285          16000 
     45000   4184.1051      900011.34      264.20021      901281.43      900266.52      898486.08     -1875.1636     -2892.2415      936.38402      8652.8677      19144.129      27796.997      115395.72      38.641434      38.641434      77.282868          16000 
     46000   4197.974       892160.68      271.74785      893198.36      893207.47      890076.21      113.96479      971.00593     -1311.806       8681.5491      18981.54       27663.089      115438.25      38.64618       38.64618       77.292361          16000 
     47000   4247.7513      900488.84      279.29643      901558.96      898873.98      901033.59     -283.73553      2158.378       1393.1204      8784.4902      19107.109      27891.599      115353.23      38.636691      38.636691      77.273381          16000 
     48000   4209.0579      907924.31      286.84573      908127.82      904924.17      910720.96      124.15099      102.10973      1675.3316      8704.4709      19234.627      27939.098      115139.55      38.61282       38.61282       77.225639          16000 
     49000   4219.7496      888843.72      294.39336      889290.63      888019.63      889220.91     -176.51552      581.42646      769.08957      8726.5817      19013.543      27740.125      115631.49      38.667733      38.667733      77.335465          16000 
     50000   4158.1911      895699.67      301.94034      887639.09      901443.84      898016.08      85.665671      275.79768     -2688.2846      8599.2766      19089.976      27689.252      115433.87      38.645692      38.645692      77.291383          16000 
     51000   4239.1011      898920.23      309.48917      899280.1       897386.43      900094.15      262.38268     -696.01572      503.55123      8766.6013      19072.875      27839.476      115381.44      38.63984       38.63984       77.27968           16000 
     52000   4175.5506      898800.59      317.038        897223.12      901678.16      897500.49     -1028.3516     -148.19152      1049.709       8635.1767      19083.464      27718.64       115297.87      38.630509      38.630509      77.261018          16000 
     53000   4203.5515      900582.98      324.58697      898799.23      902930.43      900019.27     -1598.8578      686.45036     -419.68355      8693.0834      19136.328      27829.411      115309.44      38.631801      38.631801      77.263601          16000 
     54000   4177.715       902430.1       332.13363      907307.2       901157.61      898825.49      226.25022      491.66369      112.59964      8639.6528      19215.226      27854.879      115319.43      38.632917      38.632917      77.265834          16000 
     55000   4237.3001      893945.93      339.68243      897172.57      890384.41      894280.81     -199.09739     -956.07927     -1297.3794      8762.8767      18994.479      27757.355      115403         38.642247      38.642247      77.284494          16000 
     56000   4164.2494      907990.51      347.23205      908219.44      906353.15      909398.95      159.04315     -1439.6496     -2475.8291      8611.8055      19140.977      27752.783      115004.73      38.597743      38.597743      77.195485          16000 
     57000   4208.7771      905027.35      354.78323      908224.84      901585.49      905271.72     -171.80559     -1186.874      -627.15945      8703.8902      19162.154      27866.045      115254.63      38.625679      38.625679      77.251357          16000 
     58000   4174.5775      891700.28      362.33191      893424.58      891863.69      889812.58     -1220.9476      2187.4403     -139.28249      8633.1642      18952.126      27585.29       115425.62      38.644771      38.644771      77.289543          16000 
     59000   4186.3627      902407.1       369.88131      902409.59      898404.69      906407.03      1083.7175      2007.0452     -427.6553       8657.5364      19176.152      27833.688      115289.68      38.629595      38.629595      77.259189          16000 
     60000   4191.0852      900488.93      377.432        900855.52      899148.03      901463.24     -937.38412     -234.06581      534.01224      8667.3027      19178.635      27845.937      115317.05      38.632651      38.632651      77.265301          16000 
     61000   4234.305       898004.03      384.98098      900910.36      896083.38      897018.35      1452.4592     -540.81531      491.70642      8756.6826      19076.448      27833.131      115303.08      38.631091      38.631091      77.262182          16000 
     62000   4167.562       901766.08      392.52962      898177.88      905892.16      901228.21     -2101.8864     -607.36606     -147.4189       8618.656       19134.899      27753.555      115213.76      38.621113      38.621113      77.242226          16000 
     63000   4236.2024      896914.21      400.08045      900763.57      895179.23      894799.82      872.97782     -360.40518      747.49826      8760.6067      19051.477      27812.083      115392.38      38.641061      38.641061      77.282122          16000 
     64000   4174.5552      888882.12      407.62888      889954.82      887586.47      889105.07     -985.53475     -2931.048      -111.3218       8633.1181      18960.863      27593.981      115503.35      38.653444      38.653444      77.306888          16000 
     65000   4213.8524      902471.31      415.178        902130.67      904109.14      901174.11      137.47663      488.41816      859.6194       8714.3861      19127.234      27841.62       115277.42      38.628225      38.628225      77.25645           16000 
     66000   4175.5823      911027.9       422.72613      912749.56      912642.24      907691.89      2033.3832     -682.71177      882.90395      8635.2422      19227.71       27862.953      115083.92      38.6066        38.6066        77.213199          16000 
     67000   4253.8164      898183.61      430.2722       900238.42      901877.05      892435.37     -36.83019      -278.90135     -1645.8935      8797.033       19109.307      27906.34       115411.02      38.643142      38.643142      77.286284          16000 
     68000   4229.8825      892192.55      437.81974      888934.79      892632.95      895009.9      -755.97506     -255.10502      2198.8198      8747.5368      18947.629      27695.166      115441.73      38.646568      38.646568      77.293137          16000 
     69000   4213.5159      900683.41      445.36905      899213.98      899902.5       902933.75     -2155.0955      408.27784      867.73022      8713.6903      19152.676      27866.366      115351.32      38.636478      38.636478      77.272956          16000 
     70000   4252.8983      898926.54      452.91657      899991.44      899147.25      897640.94     -360.96068     -94.513655     -1826.4265      8795.1343      19089.594      27884.728      115327.37      38.633803      38.633803      77.267606          16000 
     71000   4153.8378      898712.85      460.46499      896671.25      901162.6       898304.72     -392.23524      267.7482       264.34228      8590.274       19165.157      27755.431      115375.12      38.639134      38.639134      77.278268          16000 
     72000   4221.5076      902227.6       468.01067      906154.51      895666.07      904862.23      237.87862     -465.27473      1312.8666      8730.2172      19112.397      27842.614      115303.83      38.631175      38.631175      77.26235           16000 
     73000   4222.7282      906064.71      475.55715      905002.85      906389.33      906801.96     -1407.132       596.78996      922.65831      8732.7416      19150.324      27883.066      115192.01      38.618683      38.618683      77.237365          16000 
     74000   4180.6958      901348.14      483.10773      905892.18      897785.86      900366.38      154.16595      873.54973     -1038.6062      8645.8171      19107.375      27753.192      115245.03      38.624607      38.624607      77.249213          16000 
     75000   4194.1512      890489.79      490.65501      888852.28      892711.32      889905.77      553.92566     -1056.0247      1027.2496      8673.6434      18991.501      27665.145      115494.66      38.652475      38.652475      77.30495           16000 
     76000   4188.5597      898122.07      498.20584      896486.72      900253.29      897626.21      1415.8954      724.94762     -527.42191      8662.0799      19132.349      27794.429      115426.77      38.644899      38.644899      77.289799          16000 
     77000   4200.8371      903542.4       505.7554       901999.93      904726.72      903900.55     -1357.2407     -602.03831      1018.2731      8687.4699      19224.641      27912.111      115392.13      38.641033      38.641033      77.282066          16000 
     78000   4158.3231      902660.09      513.30259      902424.09      902021.8       903534.37      1610.9822     -1610.8074      1082.2375      8599.5496      19132.935      27732.484      115256.18      38.625852      38.625852      77.251704          16000 
     79000   4229.3121      898914.81      520.85246      897439.1       899682.17      899623.17      89.009662      2079.2224     -915.0023       8746.3572      19108.21       27854.567      115413.74      38.643445      38.643445      77.28689           16000 
     80000   4188.9748      894443.69      528.39887      894938.62      890646.05      897746.4      -934.5129       206.99168     -505.92557      8662.9384      19069.716      27732.655      115470.97      38.649832      38.649832      77.299664          16000 
     81000   4199.484       900001.41      535.94682      898083.91      898252.33      903668        -725.97894      1474.9342     -631.60732      8684.6717      19141.899      27826.571      115332.13      38.634334      38.634334      77.268669          16000 
     82000   4200.1121      907121.93      543.49619      907760.88      907990.79      905614.12      37.385328      705.60364      179.19725      8685.9706      19200.195      27886.165      115141.3       38.613014      38.613014      77.226028          16000 
     83000   4168.5155      897448.98      551.04491      897737.57      895332.78      899276.58     -2203.3242     -1939.5601     -523.31087      8620.6279      19049.602      27670.23       115328.99      38.633984      38.633984      77.267969          16000 
     84000   4214.5079      890465.78      558.59299      895703.92      885891.94      889801.47     -1465.8872      274.36062     -640.94168      8715.7417      19048.462      27764.204      115589.6       38.663063      38.663063      77.326126          16000 
     85000   4178.3707      908833.79      566.14263      905204.59      908024.81      913271.98      414.39594     -738.10434     -195.80783      8641.0087      19208.934      27849.943      115115.54      38.610135      38.610135      77.22027           16000 
     86000   4238.6717      900051.32      573.69112      899958.79      897355.95      902839.23     -726.43849      2025.2754      341.03592      8765.7132      19104.904      27870.617      115308.63      38.631711      38.631711      77.263422          16000 
     87000   4212.8461      895690.22      581.24083      894919.79      897304.87      894846.02      139.97914      1281.5101      956.3522       8712.305       19040.253      27752.558      115408.84      38.642898      38.642898      77.285796          16000 
     88000   4175.8527      893660.53      588.78761      893555.18      892272.35      895154.06     -633.18907      578.47258     -266.45561      8635.8015      19133.671      27769.472      115537.83      38.65729       38.65729       77.314581          16000 
     89000   4234.5036      899578.1       596.33448      897890.63      903530.01      897313.67      488.95572     -248.09399     -2222.5982      8757.0935      19014.839      27771.932      115265.24      38.626865      38.626865      77.253729          16000 
     90000   4247.34        902866.6       603.88228      903950.95      901611.18      903037.68      1044.9179     -1247.4007     -1132.9996      8783.6395      19129.602      27913.242      115265.79      38.626926      38.626926      77.253852          16000 
     91000   4188.7205      899380.25      611.43201      896681.61      902996.64      898462.5      -1377.1575     -1167.6296     -385.97545      8662.4125      19126.785      27789.198      115333.67      38.634507      38.634507      77.269013          16000 
     92000   4199.6215      895028.7       618.98072      896273.11      892273.36      896539.62     -582.79985      1232.0092      966.48109      8684.956       19120.621      27805.577      115470.83      38.649816      38.649816      77.299632          16000 
     93000   4182.7394      901076.28      626.53167      900601.04      903805.22      898822.58      414.06115     -518.8497       289.1343       8650.0434      19141.951      27791.994      115332.85      38.634415      38.634415      77.268831          16000 
     94000   4170.8855      894165.38      634.08062      896770.35      889821.75      895904.05      2079.86       -1232.5986     -377.54018      8625.5291      19115.225      27740.754      115498.89      38.652946      38.652946      77.305892          16000 
     95000   4204.7099      905965.88      641.62813      907217.16      903097.34      907583.15      207.91654      427.16065     -1308.3865      8695.4791      19204.124      27899.603      115180.53      38.617399      38.617399      77.234798          16000 
     96000   4246.8062      910039.18      649.17612      907723.04      904038.17      918356.34      115.57199     -710.42119     -92.215111      8782.5356      19262.015      28044.55       115201.22      38.619712      38.619712      77.239423          16000 
     97000   4186.3189      894142.12      656.72269      896523.98      891543.59      894358.8       971.02593      1086.4808      521.86989      8657.4458      19039.683      27697.129      115450.13      38.647506      38.647506      77.295012          16000 
     98000   4238.3456      897369.66      664.27018      897323.46      896713.26      898072.25      568.89478     -179.41695      1499.8299      8765.0388      19181.356      27946.395      115497.18      38.652756      38.652756      77.305511          16000 
     99000   4179.9505      899561.43      671.81766      899594.29      902584.99      896505         660.10643      836.37146     -825.89579      8644.2758      19129.031      27773.306      115320.85      38.633075      38.633075      77.266151          16000 
    100000   4222.7378      903324.62      679.37618      902106.41      900054.22      907813.24     -628.35609     -526.22775      981.62222      8732.7615      19128.295      27861.057      115285.1       38.629083      38.629083      77.258166          16000 
    101000   4235.3058      901535.92      686.92479      903796.63      904977.92      895833.2      -314.05349     -912.13768     -479.29077      8758.7524      19142.57       27901.323      115298.83      38.630616      38.630616      77.261232          16000 
    102000   4170.5081      897948.23      694.47417      901485.32      893517.71      898841.66     -148.48689      407.09132      267.28826      8624.7486      19112.097      27736.846      115327.8       38.633851      38.633851      77.267702          16000 
    103000   4191.9262      892799.98      702.02086      891692.09      889926.16      896781.7      -865.10442      303.7029       878.38989      8669.042       19064.917      27733.959      115501.54      38.653242      38.653242      77.306485          16000 
    104000   4244.5483      905052.84      709.57051      905481.79      900750.98      908925.74      584.48504     -527.24909      757.23493      8777.8662      19234.84       28012.706      115323.22      38.63334       38.63334       77.266681          16000 
    105000   4178.695       900964.71      717.12217      905256.93      895234.64      902402.58      564.66266      86.77518      -1169.1351      8641.6794      19104.498      27746.177      115329.07      38.633993      38.633993      77.267986          16000 
    106000   4195.2799      893032.68      724.66633      891913.99      895130.67      892053.37      484.15779      351.60206     -156.16574      8675.9774      18959.754      27635.731      115459.62      38.648565      38.648565      77.29713           16000 
    107000   4227.6127      906620.92      732.21463      903056.05      907984.89      908821.82     -933.35083      2058.0931     -1571.3294      8742.8428      19105.805      27848.648      115094.99      38.607837      38.607837      77.215675          16000 
    108000   4240.6921      907933.57      739.76697      907275.47      910711.39      905813.85     -819.47037     -92.30815      -759.53683      8769.8914      19253.956      28023.848      115216.23      38.621389      38.621389      77.242778          16000 
    109000   4219.4798      895033.51      747.31353      891656.43      897421.92      896022.19      670.56943      465.87955     -684.10816      8726.0237      19067.265      27793.288      115480.11      38.650851      38.650851      77.301703          16000 
    110000   4197.2156      899777.5       754.85916      895909.66      901789.12      901633.72      322.69181     -38.679984      1284.1366      8679.9806      19078.466      27758.446      115203.52      38.619968      38.619968      77.239937          16000 
    111000   4256.6308      895591.61      762.40827      894294.51      894065.52      898414.81      746.1545      -919.51647      322.78293      8802.8532      19094.744      27897.598      115481.18      38.650971      38.650971      77.301941          16000 
    112000   4149.5993      893394.63      769.9578       889998.24      894440.28      895745.37     -732.72487     -98.064068      398.76577      8581.5085      19061.278      27642.787      115471.62      38.649904      38.649904      77.299808          16000 
    113000   4211.155       897099.91      777.505        896313.99      895435.68      899550.05     -92.475798      15.575381     -137.32875      8708.8077      19038.405      27747.213      115385.93      38.640342      38.640342      77.280683          16000 
    114000   4170.9154      897201.99      785.05161      899599.31      898788.53      893218.13     -1741.0711     -1311.3093     -173.76965      8625.5909      19053.886      27679.477      115325.23      38.633565      38.633565      77.267129          16000 
    115000   4236.52        896970.28      792.60122      895657.88      897606.17      897646.8      -438.94041     -1281.9862     -1276.2059      8761.2635      19057.524      27818.787      115442.92      38.646701      38.646701      77.293403          16000 
    116000   4203.3683      898986.7       800.14922      897400.7       900025.05      899534.35     -536.51379     -374.62555     -5.0124417      8692.7045      19099.031      27791.735      115395.6       38.641421      38.641421      77.282842          16000 
    117000   4143.1535      898854.84      807.69961      900453.8       895865.8       900244.92      108.25776     -938.15097      1029.9533      8568.1784      19132.741      27700.919      115398.05      38.641695      38.641695      77.283389          16000 
    118000   4222.3081      908189.83      815.24857      911834.88      906209.31      906525.3       1438.6991     -1951.6734      391.5213       8731.8728      19213.746      27945.619      115110.29      38.609548      38.609548      77.219096          16000 
    119000   4230.6673      904850.08      822.79664      909345.45      898962.15      906242.65      901.40528     -2277.3196     -446.45715      8749.1598      19191.438      27940.598      115269.84      38.627378      38.627378      77.254757          16000 
    120000   4204.9506      893803.03      830.35114      892739.01      896939.64      891730.42     -1306.191       1052.5746      558.62041      8695.9769      19027.992      27723.969      115389.95      38.64079       38.64079       77.281579          16000 
    121000   4210.2428      897629         837.89923      896743.49      899203.1       896940.41     -1249.7166     -897.26085      502.29108      8706.9213      19048.145      27755.066      115385.91      38.640339      38.640339      77.280678          16000 
    122000   4275.8468      903038.08      845.44597      900291.06      906179.91      902643.26     -69.076453     -582.14386     -1145.5719      8842.5926      19131.937      27974.529      115297.31      38.630447      38.630447      77.260893          16000 
    123000   4182.8073      899298.32      852.9936       895771.79      902476.32      899646.85      2469.4801      101.30499     -733.95276      8650.1838      19138.083      27788.267      115304.43      38.631242      38.631242      77.262483          16000 
    124000   4220.2078      901297.34      860.5415       901380.8       899460.83      903050.39     -768.98956      1922.5435      509.88587      8727.5292      19117.523      27845.053      115301.1       38.630869      38.630869      77.261739          16000 
    125000   4196.1644      896525.91      868.09102      894705.62      897424.72      897447.4      -2932.4707      641.48948     -725.68261      8677.8067      19082.142      27759.949      115424.57      38.644654      38.644654      77.289308          16000 
    126000   4211.8602      896093.46      875.63491      896381.15      900844.28      891054.94     -361.86075     -517.90056      20.164117      8710.266       19116.018      27826.284      115362.66      38.637744      38.637744      77.275488          16000 
    127000   4203.1102      905261.86      883.1829       905591.1       906813.95      903380.53      544.90365     -577.43939      578.68406      8692.1708      19181.645      27873.816      115232.34      38.623189      38.623189      77.246379          16000 
    128000   4235.4058      900025.98      890.7303       901399.46      899494.45      899184.03     -869.31416      1619.5949      886.77102      8758.9593      19108.134      27867.093      115388.82      38.640664      38.640664      77.281328          16000 
    129000   4155.2674      903025.64      898.27751      901308.22      907571.75      900196.97      1449.5659      1347.9099     -214.09333      8593.2303      19183.828      27777.058      115257.52      38.626003      38.626003      77.252005          16000 
    130000   4229.9116      899326.93      905.8273       900859.54      898759.67      898361.6      -595.47434      158.66289     -425.17423      8747.597       19047.256      27794.853      115303.85      38.631177      38.631177      77.262354          16000 
    131000   4227.7942      899399.13      913.3739       899827.82      899979.16      898390.42      453.89138      1053.9261     -568.38147      8743.2183      19115.779      27858.997      115326.73      38.633732      38.633732      77.267464          16000 
    132000   4168.8696      892300.96      920.92414      892403.87      890441.23      894057.79      769.89791      415.60966     -259.01491      8621.3602      19034.137      27655.497      115478.77      38.650702      38.650702      77.301403          16000 
    133000   4237.5268      907364.03      928.47141      911768.48      907258.36      903065.26     -820.14709      413.76096     -1313.4664      8763.3455      19183.213      27946.558      115161.46      38.615268      38.615268      77.230536          16000 
    134000   4209.3101      904346.42      936.01821      903553.24      904222.74      905263.29     -963.68751     -2040.4721      655.44652      8704.9925      19198.615      27903.607      115259.07      38.626175      38.626175      77.252349          16000 
    135000   4193.1153      894425.94      943.56559      893971.71      896033.69      893272.42      467.2053      -1721.3305     -1222.1653      8671.501       19071.131      27742.632      115468.06      38.649507      38.649507      77.299013          16000 
    136000   4204.2094      895094.34      951.11168      897599.93      892572.85      895110.24     -70.051399     -458.16226      854.49258      8694.444       19018.519      27712.963      115416.18      38.643718      38.643718      77.287436          16000 
    137000   4232.9898      900354.72      958.66075      897429.83      903872.61      899761.73      190.41662      1398.7687      485.78567      8753.9628      19091.531      27845.494      115275.27      38.627985      38.627985      77.25597           16000 
    138000   4235.5028      899864.42      966.20578      904272.11      899509.14      895812         439.06785      800.74574      1607.7457      8759.1598      19096.663      27855.822      115378.05      38.639462      38.639462      77.278924          16000 
    139000   4159.3585      896835.72      973.75217      897174.69      891994.57      901337.89      2177.3259      726.78932     -416.82436      8601.6909      19056.396      27658.086      115363.98      38.637891      38.637891      77.275781          16000 
    140000   4251.4611      902225.06      981.29974      904396.92      898710.67      903567.58      775.64036     -1634.1716      397.74682      8792.1621      19099.443      27891.606      115240.96      38.624152      38.624152      77.248305          16000 
    141000   4174.4601      906842.78      988.84634      907321.44      907310.33      905896.58     -490.48671     -405.86751     -544.11007      8632.9215      19238.896      27871.818      115202.27      38.619829      38.619829      77.239658          16000 
    142000   4221.2453      895865.02      996.39312      895498.99      894114.55      897981.52      413.20294     -315.96912     -1003.8029      8729.6749      19088.656      27818.331      115503.29      38.653437      38.653437      77.306874          16000 
    143000   4187.7892      897004.32      1003.9416      898160.79      894133.64      898718.53     -0.85856261     449.42069      365.62211      8660.4866      19105.452      27765.939      115370.14      38.638579      38.638579      77.277158          16000 
    144000   4192.9256      898384.08      1011.4893      895846.55      898668.05      900637.65      804.31259      268.02699      224.21654      8671.1087      19136.768      27807.876      115375.4       38.639166      38.639166      77.278332          16000 
    145000   4216.4272      907782.58      1019.0364      907374.21      904451.04      911522.5       417.08967      345.31408      2024.6493      8719.7109      19196.496      27916.207      115166.03      38.615779      38.615779      77.231559          16000 
    146000   4208.2569      899379.37      1026.587       903696.98      898457.91      895983.23      979.71813     -1899.239      -1337.0734      8702.8143      19100.565      27803.379      115364.34      38.637931      38.637931      77.275862          16000 
    147000   4211.7367      890370.4       1034.1325      888573.14      891251.4       891286.67     -1367.3589     -108.24932     -420.31886      8710.0107      19107.516      27817.527      115729.64      38.67867       38.67867       77.35734           16000 
    148000   4148.0244      900364.57      1041.6798      898857.73      900442.11      901793.86     -221.14491      433.7786       806.88027      8578.2515      19129.968      27708.219      115269.66      38.627359      38.627359      77.254717          16000 
    149000   4180.3896      906226.2       1049.229       903501.73      905267.7       909909.16     -833.48514     -1066.4346     -574.35625      8645.184       19214.495      27859.679      115231.92      38.623142      38.623142      77.246284          16000 
    150000   4242.2695      895459.45      1056.774       896749.34      891930.62      897698.38     -808.69154     -663.02787     -2039.6022      8773.1536      19059.553      27832.707      115370.3       38.638596      38.638596      77.277192          16000 
    151000   4166.5369      895858.92      1064.3226      903135.07      894481.7       889959.99      1449.1921     -1705.2828     -524.32089      8616.536       19078.669      27695.205      115438.89      38.646252      38.646252      77.292505          16000 
    152000   4191.0697      897572.11      1071.8688      903006.99      893972.26      895737.07     -1132.2177      1265.4243      1737.5389      8667.2707      19118.839      27786.11       115425.6       38.644769      38.644769      77.289538          16000 
    153000   4243.6544      909397.23      1079.4157      908686.94      913062.03      906442.73     -2176.2405      494.73602     -36.635043      8776.0175      19252.828      28028.845      115155.55      38.614608      38.614608      77.229216          16000 
    154000   4193.2978      896719.11      1086.9621      894924.8       900265.26      894967.28     -1379.7789     -305.61508      977.08846      8671.8786      19037.721      27709.6        115396.4       38.64151       38.64151       77.28302           16000 
    155000   4177.982       900567.51      1094.5101      903555.2       899317.7       898829.62     -411.48303     -1370.1765     -66.434542      8640.2049      19112.151      27752.355      115292.24      38.629881      38.629881      77.259761          16000 
    156000   4208.1738      900800.43      1102.0594      902747.8       898995.08      900658.41     -1919.6952      72.089252      1263.5229      8702.6426      19158.08       27860.723      115334.91      38.634646      38.634646      77.269291          16000 
    157000   4217.3942      901497.61      1109.606       900186.06      898917.72      905389.04      199.52837      263.79567      560.96451      8721.7106      19139.946      27861.657      115277.85      38.628273      38.628273      77.256545          16000 
    158000   4184.0315      898596.45      1117.1542      901821.71      898829.4       895138.24     -239.51677      941.82184     -720.18162      8652.7155      19058.096      27710.812      115295.56      38.630251      38.630251      77.260501          16000 
    159000   4204.9216      892880.43      1124.7009      891419.84      890736.95      896484.49      139.0764       71.234041     -57.596151      8695.917       19046.494      27742.411      115484.45      38.651336      38.651336      77.302672          16000 
    160000   4226.6698      902670.85      1132.2506      904370.55      901377.32      902264.69     -1329.1066      331.45092     -2209.6894      8740.8929      19196.78       27937.673      115291.43      38.629789      38.629789      77.259579          16000 
    161000   4194.7466      897834.64      1139.7982      898735.2       893544.05      901224.68      1028.1494     -471.22505     -225.64361      8674.8747      19113.361      27788.236      115334.06      38.63455       38.63455       77.2691            16000 
    162000   4231.6541      893700.85      1147.3445      889880.79      892463.69      898758.07      724.02849      1071.2025      781.97662      8751.2005      19037.118      27788.319      115479.3       38.650761      38.650761      77.301522          16000 
    163000   4188.965       904884.38      1154.8939      904060.83      910661.46      899930.87     -1277.6885      1097.1424      958.60641      8662.9182      19096.203      27759.121      115141.59      38.613047      38.613047      77.226094          16000 
    164000   4171.2429      898563.22      1162.4414      900414.53      898654.61      896620.51      147.24785      260.98364      2842.1048      8626.2683      19149.13       27775.398      115353.41      38.636711      38.636711      77.273421          16000 
    165000   4243.679       897312.33      1169.9891      897300.13      898283.51      896353.34      1067.1226      1613.2981     -804.27938      8776.0684      19106.772      27882.84       115485.53      38.651456      38.651456      77.302911          16000 
    166000   4163.5841      899456.31      1177.5362      894516.84      899239.05      904613.05     -283.49761     -145.69583     -1329.267       8610.4297      19152.837      27763.266      115330.01      38.634098      38.634098      77.268196          16000 
    167000   4232.3885      908436.15      1185.083       912115.41      907879.08      905313.95     -1277.4192     -645.41678      265.70934      8752.7193      19194.315      27947.035      115137.68      38.61261       38.61261       77.225221          16000 
    168000   4151.4368      907499.28      1192.6321      908661.18      910529.03      903307.65     -147.09613     -82.334912      422.008        8585.3085      19146.532      27731.841      115058.81      38.603792      38.603792      77.207583          16000 
    169000   4226.4454      890836.74      1200.1812      891629.64      893450.61      887429.97     -1175.8921      418.31502      278.66633      8740.4288      18967.131      27707.559      115538.36      38.657349      38.657349      77.314697          16000 
    170000   4212.9822      900042.12      1207.727       895741.01      902697.44      901687.91     -968.2963      -41.490705     -1408.4333      8712.5865      19093.251      27805.837      115275.55      38.628016      38.628016      77.256031          16000 
    171000   4248.8602      901295.47      1215.2723      897405.38      903208.16      903272.87      1083.0161     -50.822407      715.6421       8786.7833      19123.878      27910.662      115373.09      38.638908      38.638908      77.277815          16000 
    172000   4206.0195      894611.22      1222.8215      895069.35      895820.84      892943.46      1211.282      -1469.8844     -1593.9817      8698.1873      19071.944      27770.131      115499.82      38.65305       38.65305       77.3061            16000 
    173000   4212.0382      905193.99      1230.3708      911665.59      904772.35      899144.03     -1378.7563      762.27608     -533.59713      8710.6342      19142.955      27853.589      115269.83      38.627377      38.627377      77.254753          16000 
    174000   4214.6041      902495.19      1237.917       903889.12      901125.25      902471.19      1267.7598     -708.26549     -1307.4153      8715.9407      19115.944      27831.885      115269.82      38.627376      38.627376      77.254752          16000 
    175000   4172.1583      893033.66      1245.4637      892461.16      897657.31      888982.52      819.42394     -1407.5886      870.71771      8628.1612      19058.309      27686.47       115519.94      38.655295      38.655295      77.31059           16000 
    176000   4191.5488      903127.88      1253.0123      903063.2       903518.88      902801.55     -581.76094     -667.70309     -453.3726       8668.2614      19177.279      27845.54       115304.92      38.631296      38.631296      77.262592          16000 
    177000   4158.5358      906094.7       1260.5617      908585.21      905232.28      904466.6      -623.22495      1495.7197     -190.61846      8599.9895      19200.454      27800.444      115155.19      38.614568      38.614568      77.229136          16000 
    178000   4209.6662      890841.75      1268.1087      888882.94      891919.59      891722.72      741.49755      1701.5724      2219.0477      8705.7289      19051.601      27757.33       115533.9       38.656852      38.656852      77.313703          16000 
    179000   4180.555       896687.18      1275.6549      892372.21      899242.87      898446.47     -792.33075     -776.91506     -1967.9414      8645.5259      19018.964      27664.49       115343.94      38.635653      38.635653      77.271307          16000 
    180000   4213.6295      901711.31      1283.2021      905623.69      901477.93      898032.33     -48.871319     -562.49323      1771.8295      8713.9251      19115.298      27829.223      115281.17      38.628643      38.628643      77.257287          16000 
    181000   4207.2416      896969.42      1290.7482      894086.85      897241.54      899579.88     -112.28076     -594.18144     -431.5164       8700.7148      19086.024      27786.739      115449.46      38.647431      38.647431      77.294863          16000 
    182000   4223.8933      899103.31      1298.2936      897321.29      899499.07      900489.59     -899.57952     -204.53335     -575.16671      8735.1509      19014.965      27750.116      115264.08      38.626735      38.626735      77.25347           16000 
    183000   4204.9393      907593.63      1305.8422      905375.74      912812.6       904592.56      1745.2003     -940.28561      422.90784      8695.9535      19195.211      27891.164      115162.44      38.615378      38.615378      77.230756          16000 
    184000   4217.3142      893927.18      1313.3931      896848.89      891767.07      893165.57      906.47935      174.43801     -873.75166      8721.5452      19008.078      27729.624      115428.98      38.645146      38.645146      77.290293          16000 
    185000   4165.2476      900870.55      1320.9382      902688.95      899084.84      900837.85      463.73248      1604.0538     -107.11795      8613.8696      19147.878      27761.748      115358.86      38.637319      38.637319      77.274638          16000 
    186000   4177.9145      902396.08      1328.485       904224.49      904936.05      898027.71      74.510101      1826.8362      542.27926      8640.0653      19248.268      27888.334      115446.2       38.647068      38.647068      77.294135          16000 
    187000   4205.6996      902417.11      1336.0327      902858.56      904704.43      899688.36     -1073.6727     -413.08668      325.36137      8697.5258      19125.621      27823.147      115249.47      38.625103      38.625103      77.250206          16000 
    188000   4226.9869      891034.53      1343.58        891217.03      888384.41      893502.14     -831.9109      -1244.012       1209.6753      8741.5487      18972.822      27714.37       115532.65      38.656712      38.656712      77.313424          16000 
    189000   4172.5423      902428.21      1351.127       901602.99      906554.8       899126.84      2201.2894     -1030.348       127.99999      8628.9554      19181.103      27810.058      115300.89      38.630846      38.630846      77.261692          16000 
    190000   4214.6752      906441.7       1358.6734      904581.62      906739.23      908004.24      300.82253     -596.75217      353.34679      8716.0876      19245.001      27961.088      115238.82      38.623913      38.623913      77.247827          16000 
    191000   4189.3707      905660.61      1366.2205      898999.68      907393.75      910588.41     -1644.2515      88.996125     -550.85341      8663.7571      19167.69       27831.447      115210.93      38.620797      38.620797      77.241594          16000 
    192000   4222.424       894271.43      1373.7699      890171.05      899817.37      892825.86     -97.869544      66.521455     -1414.0021      8732.1124      19086.693      27818.805      115525.46      38.655911      38.655911      77.311821          16000 
    193000   4176.184       895665.31      1381.3176      895942.09      896075.19      894978.66     -1088.4924      1031.0306     -527.87493      8636.4866      19027.957      27664.443      115359.27      38.637366      38.637366      77.274731          16000 
    194000   4198.17        907957.65      1388.8646      908958.25      905962.1       908952.61      245.91017      1365.2556      515.01014      8681.9544      19156.24       27838.194      115200.97      38.619684      38.619684      77.239368          16000 
    195000   4191.7892      899010.81      1396.4119      901850.74      902616.18      892565.5      -1299.6965     -633.91372     -133.66519      8668.7587      19109.601      27778.36       115267.63      38.627131      38.627131      77.254262          16000 
    196000   4224.7424      903696.55      1403.9607      905710.55      900397.19      904981.91     -894.94494      420.90049      371.83921      8736.9069      19180.569      27917.476      115286.9       38.629284      38.629284      77.258567          16000 
    197000   4237.4656      900636.58      1411.5071      900930.21      899670.12      901309.42      1765.2207      872.7647      -1165.5863      8763.2189      19126.441      27889.66       115363.45      38.637832      38.637832      77.275664          16000 
    198000   4182.4635      890420.86      1419.053       885350.3       891862.62      894049.67      0.97231809     841.72543     -326.08834      8649.4728      18978.504      27627.976      115533.54      38.656811      38.656811      77.313622          16000 
    199000   4215.6327      899775.98      1426.6009      899285.39      896763.6       903278.94     -1061.8758      1564.2191     -1047.5889      8718.0678      19155.381      27873.449      115443.87      38.646808      38.646808      77.293616          16000 
    200000   4178.2198      905796.99      1434.1527      903955.28      902553.33      910882.38     -1050.3149      505.3586       300.94654      8640.6968      19201.579      27842.276      115184.89      38.617886      38.617886      77.235773          16000 
    201000   4178.0762      894292.83      1441.6987      893819.63      892092.06      896966.81      2750.7418      406.64548     -1194.7618      8640.3998      19093.386      27733.785      115499.15      38.652975      38.652975      77.30595           16000 
    202000   4254.3437      896110.4       1449.2445      894216.47      894197.31      899917.43     -479.12524     -453.0141      -454.01637      8798.1234      19072.014      27870.137      115410.04      38.643032      38.643032      77.286064          16000 
    203000   4145.3199      911443.53      1456.7939      908784.09      912334.98      913211.52     -700.51716     -757.61672      977.83264      8572.6586      19263.469      27836.128      115071.05      38.605161      38.605161      77.210321          16000 
    204000   4223.9275      897200.52      1464.341       897039.98      901147.59      893414        -259.59338      1709.0423     -1394.9153      8735.2217      19043.142      27778.364      115355.25      38.636917      38.636917      77.273833          16000 
    205000   4223.7273      892490.73      1471.886       895326.19      891980.81      890165.18      853.56734     -168.19794      656.96899      8734.8077      19104.449      27839.257      115591.6       38.663285      38.663285      77.326571          16000 
    206000   4191.2206      907196.33      1479.4325      904606.58      908534.23      908448.17      282.18426      884.74883     -263.00807      8667.5827      19208.669      27876.252      115183.3       38.61771       38.61771       77.235419          16000 
    207000   4192.4219      900887.9       1486.9828      899535.46      904034.42      899093.83      1710.033      -248.48476      1063.9239      8670.067       19180.717      27850.784      115322.71      38.633283      38.633283      77.266565          16000 
    208000   4212.1162      891159.33      1494.5325      899333.26      888686.03      885458.72     -321.08241     -126.91827     -913.07581      8710.7955      19004.465      27715.261      115582.86      38.662311      38.662311      77.324622          16000 
    209000   4215.3684      897423.1       1502.0793      895878.96      901546.79      894843.56      696.63348     -1710.8421     -451.20978      8717.5213      19001.137      27718.659      115287.61      38.629364      38.629364      77.258727          16000 
    210000   4177.9804      902032.71      1509.6265      898739.82      904209.3       903149.01      99.832193     -1690.5381     -187.46391      8640.2016      19178.273      27818.475      115245.58      38.624668      38.624668      77.249336          16000 
    211000   4217.6721      895390.38      1517.1734      895144.97      892298.64      898727.55     -66.608988     -472.85132     -569.7745       8722.2854      19028.501      27750.786      115434.84      38.6458        38.6458        77.2916            16000 
    212000   4173.9824      895404.47      1524.7193      893315.97      898012.37      894885.07     -1259.8055     -439.33597     -1643.365       8631.9336      19027.678      27659.612      115368.86      38.638435      38.638435      77.276871          16000 
    213000   4192.0877      913713.88      1532.2669      917388.63      911280.66      912472.37     -784.03743      236.77168     -729.14442      8669.376       19320.326      27989.702      115094.18      38.607747      38.607747      77.215493          16000 
    214000   4168.6341      894337.08      1539.8143      897741.24      889801.13      895468.86      117.4077      -187.49102     -969.46669      8620.873       19097.563      27718.436      115432.69      38.64556       38.64556       77.291119          16000 
    215000   4224.036       897029.7       1547.3607      898498.56      894194.47      898396.06      499.09597      1825.7379      1991.8852      8735.4461      19010.157      27745.603      115359.82      38.637426      38.637426      77.274853          16000 
    216000   4170.3524      900411.97      1554.908       900552.09      897610.25      903073.57      356.08516      1302.4684      689.66675      8624.4267      19191.044      27815.47       115357.95      38.637217      38.637217      77.274434          16000 
    217000   4168.3704      907033.68      1562.4546      901185.25      911490.91      908424.87      679.50352      910.83038     -1112.1528      8620.3277      19183.278      27803.606      115161.14      38.615233      38.615233      77.230466          16000 
    218000   4183.388       892974.37      1570.0007      890020.26      892831.63      896071.23      827.0238       84.865451     -1005.6681      8651.3848      19093.299      27744.684      115520.3       38.655335      38.655335      77.31067           16000 
    219000   4150.0502      897215.31      1577.5506      895231.81      899317.12      897097.01      146.20635     -486.02697     -10.349759      8582.441       19055.575      27638.016      115374.26      38.639038      38.639038      77.278077          16000 
    220000   4167.2303      897856.82      1585.1014      895191.13      899105.14      899274.18     -781.18144      1196.7559     -415.85718      8617.9701      19142.694      27760.664      115394.56      38.641305      38.641305      77.28261           16000 
    221000   4165.3212      911452.3       1592.6499      909144.91      912814.67      912397.31      974.46032     -1013.779       801.3955       8614.0219      19328.478      27942.5        115170.86      38.616319      38.616319      77.232638          16000 
    222000   4218.0902      909673.21      1600.1984      912460.92      908075.22      908483.48      661.26714     -2219.6741      845.10559      8723.15        19193.903      27917.053      115103.11      38.608746      38.608746      77.217491          16000 
    223000   4122.6585      897930.9       1607.7452      899859.16      898624.08      895309.47     -1654.7354     -909.78548      881.38927      8525.7942      19147.899      27673.694      115395.85      38.641449      38.641449      77.282898          16000 
    224000   4207.3971      902312.74      1615.2944      897341.91      905412.45      904183.84      911.10394      794.89327      840.62985      8701.0363      19149.157      27850.193      115271.46      38.627559      38.627559      77.255118          16000 
    225000   4185.3729      903230.49      1622.8416      904068.87      905569.91      900052.7      -498.78027     -114.30183      249.83339      8655.4894      19181.192      27836.682      115246.44      38.624765      38.624765      77.249529          16000 
    226000   4195.42        899583.71      1630.3876      896750.25      902800.57      899200.3      -535.31892     -2291.3938     -366.26076      8676.2672      19100.789      27777.056      115281.77      38.628711      38.628711      77.257421          16000 
    227000   4242.0217      900906.64      1637.9351      898615.74      900838.44      903265.74      636.86249     -655.32767      371.83078      8772.641       19177.727      27950.368      115392.83      38.641112      38.641112      77.282223          16000 
    228000   4188.4129      896416.48      1645.4821      897376.3       894663.98      897209.15      429.23211      894.68137     -1026.372       8661.7764      19058.828      27720.604      115360.52      38.637505      38.637505      77.275009          16000 
    229000   4204.9972      896413.67      1653.0292      901262.31      891470.18      896508.53     -87.436297     -1644.9775     -852.84302      8696.0732      19072.672      27768.746      115404.84      38.642452      38.642452      77.284904          16000 
    230000   4243.6592      912073.29      1660.5744      910692.1       911607.11      913920.64      1435.2197      1605.872      -219.30704      8776.0275      19216.223      27992.25       115027.48      38.600287      38.600287      77.200575          16000 
    231000   4210.2142      902788.44      1668.1253      901894.03      903038.11      903433.19     -130.45817     -2044.0379     -1680.7832      8706.8622      19138.35       27845.212      115232.41      38.623196      38.623196      77.246393          16000 
    232000   4183.516       894691.48      1675.6745      898686.6       892613.7       892774.15      1259.2543     -506.31703      650.58385      8651.6493      19008.044      27659.693      115371.49      38.638729      38.638729      77.277458          16000 
    233000   4158.0349      895611.03      1683.2219      895767.13      894621.06      896444.91      703.36401     -17.630656     -461.42576      8598.9536      19163.61       27762.564      115483.78      38.651261      38.651261      77.302523          16000 
    234000   4203.0553      901215.66      1690.7664      899243.09      904593.76      899810.12     -1489.6382      557.99007      1368.8503      8692.0572      19178.058      27870.116      115228.89      38.622803      38.622803      77.245606          16000 
    235000   4209.2819      894748.78      1698.319       893251.91      894884.7       896109.75      67.300326     -178.21111     -200.20541      8704.9342      19089.315      27794.249      115445.65      38.647006      38.647006      77.294012          16000 
    236000   4213.3338      893290.89      1705.8666      896707.08      891428.59      891737        -634.65077      1146.0286      231.7786       8713.3137      19019.354      27732.667      115470.08      38.649732      38.649732      77.299464          16000 
    237000   4171.5092      904110.54      1713.4135      906408.49      904584.64      901338.5      -368.61232      91.026373      1130.0444      8626.8189      19140.521      27767.34       115265.27      38.626868      38.626868      77.253735          16000 
    238000   4191.8463      895963.32      1720.9601      896720.37      897005.62      894163.97      1577.7135     -881.14746     -536.04586      8668.8767      19083.99       27752.867      115387.28      38.640492      38.640492      77.280984          16000 
    239000   4189.6626      893925.39      1728.5076      892267.57      894714.61      894794         495.59298      1691.6299     -281.86932      8664.3608      19085.882      27750.243      115431.67      38.645446      38.645446      77.290893          16000 
    240000   4234.9897      908032.16      1736.0573      910968.6       909252.38      903875.51     -969.11237     -959.71504      788.83394      8758.0987      19249.825      28007.924      115207.19      38.620378      38.620378      77.240757          16000 
    241000   4179.828       901505.42      1743.6045      901825.8       904973.38      897717.09      490.43054     -359.92633     -1164.2283      8644.0226      19188.317      27832.339      115364.52      38.637951      38.637951      77.275901          16000 
    242000   4154.97        890463.73      1751.1523      891521.47      888801.38      891068.35     -961.90325      58.6821        1018.0806      8592.6154      19013.722      27606.337      115535.41      38.65702       38.65702       77.314039          16000 
    243000   4168.6728      899502.43      1758.6987      897079.07      898368.06      903060.16      1139.4438      512.68949      1384.8192      8620.9532      19052.893      27673.846      115313.91      38.6323        38.6323        77.2646            16000 
    244000   4192.7897      904979.32      1766.2471      902763.81      908152.93      904021.23      523.88628     -376.17723      57.698251      8670.8276      19126.127      27796.954      115173.77      38.616644      38.616644      77.233289          16000 
    245000   4181.2858      898413.02      1773.7948      898554.95      901765.53      894918.59      1030.8258      1958.8858      471.13386      8647.0373      19185.966      27833.003      115428.71      38.645117      38.645117      77.290233          16000 
    246000   4147.8237      900910.12      1781.3421      902227.8       898206.32      902296.24     -519.49086      110.77962     -966.06026      8577.8365      19153.911      27731.747      115313.99      38.632309      38.632309      77.264618          16000 
    247000   4199.249       894562.61      1788.8888      891825.8       893264.31      898597.72     -2282.0974     -383.78648      2376.1463      8684.1858      19045.739      27729.924      115447.12      38.64717       38.64717       77.294341          16000 
    248000   4230.7674      901786.25      1796.4345      898818.7       903226.03      903314.01     -261.64876     -327.29041     -2340.4562      8749.3668      19104.146      27853.512      115276.34      38.628105      38.628105      77.256209          16000 
    249000   4203.0309      900927.24      1803.9799      896852.28      902557.32      903372.12     -938.35839     -1519.8452     -325.56286      8692.0069      19095.839      27787.846      115202.74      38.619881      38.619881      77.239763          16000 
    250000   4199.0595      901491.29      1811.5273      898858.81      905081.99      900533.06     -455.95488     -133.27416      670.72238      8683.794       19073.023      27756.817      115275.02      38.627957      38.627957      77.255914          16000 
    251000   4184.7428      896774.08      1819.0745      895394.39      891349.28      903578.57     -172.94735      349.0807       256.50078      8654.1864      19123.657      27777.843      115410.11      38.64304       38.64304       77.286081          16000 
    252000   4255.838       908700.79      1826.6234      909712.03      905376.51      911013.83      413.18847     -734.09291     -935.34718      8801.2137      19228.079      28029.293      115178.65      38.61719       38.61719       77.23438           16000 
    253000   4187.6007      894360.14      1834.1704      897004.03      894670.1       891406.28     -488.14946      1262.3077     -2571.5207      8660.0967      19067.587      27727.683      115455.79      38.648138      38.648138      77.296275          16000 
    254000   4196.2871      893887.96      1841.7178      894681.41      894507.56      892474.9      -480.00852      774.43013      1123.8554      8678.0605      19000.719      27678.779      115372.85      38.638881      38.638881      77.277763          16000 
    255000   4206.8755      904949.89      1849.2648      900301.67      903459.45      911088.55     -1482.5476      1078.4881      1591.0546      8699.9576      19197.909      27897.866      115267.53      38.62712       38.62712       77.25424           16000 
    256000   4241.0494      904731.64      1856.8152      905669.75      902951.83      905573.35     -872.15644     -79.84128       180.55223      8770.6304      19116.161      27886.791      115191.01      38.61857       38.61857       77.23714           16000 
    257000   4233.7714      892186.26      1864.3599      892620.78      888643.16      895294.84     -161.50618     -317.50851     -1190.9371      8755.5792      19028.819      27784.398      115495.01      38.652514      38.652514      77.305028          16000 
    258000   4174.0925      900920.38      1871.9064      900963.25      902077.95      899719.94      1558.9128      1188.2446      940.13972      8632.1613      19164.623      27796.784      115303.22      38.631106      38.631106      77.262212          16000 
    259000   4221.3181      905028.43      1879.4541      899999.25      907914.59      907171.46     -968.66223     -359.41725     -1928.9362      8729.8253      19197.526      27927.351      115254.43      38.625657      38.625657      77.251315          16000 
    260000   4155.2683      901278.98      1887.0029      899946.1       899486.4       904404.43      2180.443      -2191.0333     -746.61536      8593.2323      19190.726      27783.959      115371.86      38.638771      38.638771      77.277542          16000 
    261000   4158.3662      899198.61      1894.5505      902027.21      896968.64      898599.99     -180.88096     -485.60483     -995.63912      8599.6389      19086.844      27686.483      115367.75      38.638312      38.638312      77.276623          16000 
    262000   4223.2676      909124.97      1902.0976      912782.72      905879.52      908712.66     -72.807265      477.11036     -866.07505      8733.857       19262.079      27995.936      115234.38      38.623417      38.623417      77.246833          16000 
    263000   4225.4226      900584.76      1909.6455      898429.77      904152.87      899171.65      182.08213      1327.3304      433.35619      8738.3136      19099.809      27838.122      115315.42      38.632469      38.632469      77.264938          16000 
    264000   4187.8247      899406.31      1917.1944      899455.97      896878.68      901884.27      1085.2834     -1692.49       -18.773466      8660.56        19121.825      27782.385      115352.74      38.636636      38.636636      77.273272          16000 
    265000   4206.3067      899361.44      1924.74        900062.73      898585.08      899436.5       2521.4796     -792.61568      702.09838      8698.7814      19183.724      27882.505      115382.64      38.639974      38.639974      77.279948          16000 
    266000   4183.7743      906328.9       1932.2877      903233.5       906025.41      909727.78     -229.33225     -2410.532      -1400.6513      8652.1835      19183.381      27835.565      115159.23      38.615019      38.615019      77.230038          16000 
    267000   4192.6022      890371.2       1939.8348      892781.14      886372.54      891959.93     -1467.9201      199.67492     -211.7561       8670.4399      18966.156      27636.596      115491.53      38.652126      38.652126      77.304251          16000 
    268000   4191.6092      896779.32      1947.3816      897703.06      892917.82      899717.07     -177.59423     -590.85597      21.911272      8668.3865      19094.477      27762.864      115388.41      38.640618      38.640618      77.281236          16000 
    269000   4190.4031      901457.27      1954.9307      901239.5       901837.64      901294.66     -438.43028     -512.28585      1916.0879      8665.8922      19228.732      27894.624      115403.15      38.642263      38.642263      77.284526          16000 
    270000   4199.078       907242.95      1962.4797      905014.79      905759.95      910954.1      -727.25089      235.57528     -19.730429      8683.8322      19182.485      27866.317      115181.68      38.617528      38.617528      77.235057          16000 
    271000   4215.6439      895073.58      1970.0281      895781.41      898399.2       891040.13      189.09239      2183.2217     -1314.0983      8718.091       19060.161      27778.252      115428.04      38.645041      38.645041      77.290082          16000 
    272000   4200.7442      895962.83      1977.576       894196.55      893983.66      899708.28      820.77561      504.5993      -1032.6847      8687.2778      19015.658      27702.936      115435.87      38.645915      38.645915      77.29183           16000 
    273000   4201.7509      900462.35      1985.1236      895961.7       903692.89      901732.45      677.17545      1035.1967     -210.95467      8689.3597      19191.171      27880.531      115414.71      38.643554      38.643554      77.287107          16000 
    274000   4223.037       904104.69      1992.6722      906308.48      901697.91      904307.68      801.41751      17.051701     -313.45625      8733.3802      19135.081      27868.462      115191.02      38.618572      38.618572      77.237144          16000 
    275000   4182.1587      894961.48      2000.2168      895875.22      892082.39      896926.82      810.6777       1686.6229      14.301285      8648.8425      19109.196      27758.038      115487.52      38.651678      38.651678      77.303355          16000 
    276000   4183.1609      900180.78      2007.765       902391.53      900701.75      897449.06      159.10792      155.76636     -817.18465      8650.915       19090.27       27741.185      115336.47      38.634819      38.634819      77.269638          16000 
    277000   4209.3055      897374.18      2015.3133      896700.52      896247.94      899174.08     -2096.8804     -537.4869       1349.1777      8704.983       19094.802      27799.785      115396.58      38.64153       38.64153       77.28306           16000 
    278000   4194.5337      898495.74      2022.8645      899779.69      901111.76      894595.78     -530.69536     -1462.6508     -1200.94        8674.4343      19010.764      27685.199      115208.78      38.620557      38.620557      77.241114          16000 
    279000   4179.0794      902261.86      2030.4109      896931.81      903598.56      906255.22      430.81662     -264.42148      397.27747      8642.4743      19131.533      27774.007      115249.51      38.625107      38.625107      77.250214          16000 
    280000   4214.4335      900957.62      2037.9605      898150.49      902262.93      902459.45     -20.276743     -817.7169       0.24304444     8715.5877      19142.586      27858.173      115367.52      38.638286      38.638286      77.276572          16000 
    281000   4176.9765      901291.15      2045.5097      899281.97      898378.85      906212.64     -138.88969     -648.26659      1869.1188      8638.1256      19158.508      27796.634      115307.76      38.631614      38.631614      77.263228          16000 
    282000   4158.5659      897890.16      2053.0568      897946.05      900919.28      894805.15     -18.358693     -361.24834      366.37106      8600.0517      19016.277      27616.329      115313.33      38.632235      38.632235      77.264471          16000 
    283000   4250.5947      916776.56      2060.6047      918255.59      915488.44      916585.66      596.92055      896.00201     -259.25035      8790.3703      19294.09       28084.461      114987.74      38.595841      38.595841      77.191682          16000 
    284000   4179.6364      900456.81      2068.1527      904017.13      900413.87      896939.43      67.23556      -355.14813      173.11958      8643.6263      19126.734      27770.36       115302.54      38.63103       38.63103       77.262061          16000 
    285000   4158.825       896888.08      2075.7002      894574.1       894601.48      901488.65      1117.7796     -1270.6686      215.22777      8600.5876      19111.111      27711.698      115370.82      38.638654      38.638654      77.277308          16000 
[...]
   3930000   4155.9206      910567.56      7032.256       912606.27      912327.72      906768.69      551.76931     -342.46972      504.7486       8594.5812      19250.027      27844.609      115110.88      38.586621      38.586621      77.311278          16000 
   3931000   4144.8199      899149.16      7039.8356      903594.74      902259.73      891593.01      620.25455      448.08108      770.04592      8571.6247      19160.36       27731.985      115307.87      38.608621      38.608621      77.355356          16000 
   3932000   4114.5326      899872.49      7047.4133      901179.55      902661.35      895776.56     -182.7503       2979.1627     -1115.1684      8508.9894      19175.537      27684.526      115392.16      38.618025      38.618025      77.374199          16000 
   3933000   4127.9612      897691.97      7054.9927      899230.47      901070.02      892775.42      391.40462      1554.7275      673.61898      8536.7602      19146.319      27683.08       115394.04      38.618236      38.618236      77.374621          16000 
   3934000   4125.6738      899379.95      7062.574       904197.58      898968.63      894973.63      1267.4692     -346.09593     -1930.4186      8532.0298      19183.942      27715.972      115335.35      38.611688      38.611688      77.3615            16000 
   3935000   4137.9413      899731.96      7070.1533      899216.34      901659.8       898319.73      348.01708     -127.9149       1172.2662      8557.3994      19173.206      27730.605      115309.08      38.608756      38.608756      77.355626          16000 
   3936000   4105.5992      910803.38      7077.7311      914663.78      914845.42      902900.94      2077.4758     -1201.654       1922.5143      8490.5148      19365.579      27856.093      115086.1       38.583853      38.583853      77.305731          16000 
   3937000   4152.4726      905879.05      7085.3167      906810.95      910625.15      900201.06     -674.72505      869.82779      450.38776      8587.4506      19246.552      27834.002      115124.06      38.588095      38.588095      77.31423           16000 
   3938000   4110.2006      898190.27      7092.8966      896134.85      902919.49      895516.47     -1871.585      -959.35506     -38.897689      8500.0307      19213.552      27713.583      115336.68      38.611836      38.611836      77.361797          16000 
   3939000   4132.7295      891945.7       7100.4747      897038.11      891579.74      887219.24      79.934571     -1963.5543      22.259915      8546.6213      19105.549      27652.17       115445.42      38.623966      38.623966      77.386102          16000 
   3940000   4097.5765      894844.83      7108.0505      895462.54      896639.35      892432.6       1309.426       260.11587     -1269.2618      8473.9236      19148.852      27622.776      115497.64      38.629789      38.629789      77.397768          16000 
   3941000   4138.7091      898693.88      7115.6253      898945.43      901373.6       895762.61      394.92276      710.65379     -901.85187      8558.9873      19137.071      27696.058      115366.22      38.615132      38.615132      77.368401          16000 
   3942000   4100.4164      903981.01      7123.203       907551.36      907978.59      896413.09     -2495.7991     -107.9683       876.4259       8479.7966      19290.47       27770.266      115233.63      38.600332      38.600332      77.338749          16000 
   3943000   4105.0065      901078.13      7130.7829      904037.62      903706.41      895490.34     -488.80596     -1498.7777     -881.4982       8489.2892      19230.114      27719.403      115323.41      38.610355      38.610355      77.358831          16000 
   3944000   4145.547       900650.56      7138.36        906492.79      903401.22      892057.69     -348.51921     -769.26525      1065.388       8573.1283      19155.625      27728.753      115305.25      38.608329      38.608329      77.35477           16000 
   3945000   4071.4568      900976.14      7145.9416      907528.3       899604.88      895795.24     -1021.8906     -657.20385      209.27552      8419.9072      19288.679      27708.586      115341.36      38.612358      38.612358      77.362844          16000 
   3946000   4103.0352      899535.9       7153.5157      900939.6       906277.03      891391.08      1088.6056      320.82719      1503.8443      8485.2123      19207.015      27692.228      115367.87      38.615315      38.615315      77.368769          16000 
   3947000   4091.4854      898854.05      7161.0907      902573.74      900058.6       893929.8      -1727.3975      2495.4068      5.2089121      8461.3271      19211.217      27672.544      115402.53      38.619183      38.619183      77.376517          16000 
   3948000   4111.0789      891800.95      7168.6705      896591.28      893794         885017.56     -2058.0397      369.22312      1933.1898      8501.8472      19110.611      27612.458      115508.77      38.63103       38.63103       77.400255          16000 
   3949000   4129.8184      891789.75      7176.2354      895288.49      894636.51      885444.26      234.137       -11.851502     -784.5106       8540.6009      19091.094      27631.694      115474.23      38.627179      38.627179      77.392538          16000 
   3950000   4110.0866      900949.09      7183.7858      905643.22      904802.3       892401.74     -345.23289     -1465.7163      554.01955      8499.795       19229.899      27729.694      115299.1       38.607642      38.607642      77.353394          16000 
   3951000   4114.6759      906995.58      7191.3398      911207.45      910731.61      899047.66     -199.39931     -637.63259      684.21795      8509.2858      19288.586      27797.872      115178.07      38.594128      38.594128      77.326318          16000 
   3952000   4098.8515      904261         7198.89        912955.36      904148.97      895678.68      1170.516       1499.0495      415.70942      8476.5603      19275.728      27752.288      115257.55      38.603004      38.603004      77.344101          16000 
   3953000   4136.3743      891752.98      7206.4367      896073.48      887489.25      891696.21     -363.69383     -965.22373     -90.747639      8554.1588      19063.908      27618.067      115496.13      38.629621      38.629621      77.397431          16000 
   3954000   4093.3189      893147.82      7213.9818      895003.3       898467.21      885972.96      859.00752      1098.3914     -1745.6068      8465.1188      19155.334      27620.453      115491.39      38.629092      38.629092      77.396371          16000 
   3955000   4122.0312      899643.04      7221.5226      903628.38      901813.52      893487.23      1332.2256     -59.132066      208.3991       8524.4968      19172.018      27696.515      115355.07      38.613888      38.613888      77.365909          16000 
   3956000   4106.2001      900165.63      7229.0597      899358.13      907213.66      893925.1      -704.64025      102.27206      1156.4092      8491.7576      19231.897      27723.655      115305.96      38.608408      38.608408      77.354929          16000 
   3957000   4129.6887      897004         7236.6005      899661.92      899995.14      891354.95      299.15787      852.89986      251.89004      8540.3328      19144.388      27684.721      115374.33      38.616037      38.616037      77.370215          16000 
   3958000   4131.7755      893657.02      7244.143       898064.04      894188.94      888718.09     -49.128592      471.78471     -79.690019      8544.6483      19092.678      27637.326      115458.32      38.625405      38.625405      77.388984          16000 
   3959000   4124.1715      900956.68      7251.6766      905196.84      901456.29      896216.92      444.78824      127.9673       128.19879      8528.9229      19182.021      27710.944      115326.47      38.610696      38.610696      77.359515          16000 
   3960000   4131.7782      907688.38      7259.2132      908382         913908.32      900774.83      851.10845     -207.7182      -444.68005      8544.654       19265.633      27810.287      115150.62      38.591062      38.591062      77.320175          16000 
   3961000   4107.7534      902861.36      7266.7527      901659.16      909447.79      897477.13     -352.96929      516.58094     -1325.7109      8494.9698      19259.814      27754.784      115249.14      38.602064      38.602064      77.342219          16000 
   3962000   4131.4511      897430.83      7274.2905      900023.13      899246.72      893022.64      1130.8457     -736.06126      275.70816      8543.9775      19156.074      27700.051      115344.7       38.612731      38.612731      77.363591          16000 
   3963000   4115.0218      896228.3       7281.8257      902886.01      896888.96      888909.92     -867.22678      52.457033     -948.68017      8510.0012      19157.486      27667.487      115401.79      38.6191        38.6191        77.376351          16000 
   3964000   4118.7443      895624.32      7289.3654      899566.23      899802.06      887504.67     -1362.9821      783.04729      145.18187      8517.6995      19140.749      27658.448      115417.09      38.620807      38.620807      77.379772          16000 
   3965000   4120.4285      897978.59      7296.9054      902784.31      900796.96      890354.5       967.53249      1846.4981      431.51252      8521.1823      19182.06       27703.242      115336.06      38.611766      38.611766      77.361658          16000 
   3966000   4113.0776      902302.09      7304.4416      907163.76      904559.72      895182.78      1374.0354     -592.69539     -348.2379       8505.9805      19225.194      27731.175      115286.05      38.606184      38.606184      77.350474          16000 
   3967000   4118.3968      904064.44      7311.9789      903611         905239.58      903342.74     -1263.5466     -1882.5155     -406.47565      8516.9807      19245.146      27762.127      115231.15      38.600055      38.600055      77.338194          16000 
   3968000   4120.7272      901631.11      7319.5165      903454.66      903695.95      897742.73     -2160.7215      469.03318     -90.015097      8521.8001      19223.875      27745.675      115259.61      38.603234      38.603234      77.344562          16000 
   3969000   4099.7001      892618.1       7327.0546      899597.97      888071.57      890184.75     -436.7145       1690.7667     -240.1135       8478.3153      19148.061      27626.376      115472.16      38.626948      38.626948      77.392075          16000 
   3970000   4105.6801      890058.34      7334.5919      889935.03      892013.71      888226.28     -523.44349     -1310.9721      549.51213      8490.6821      19109.318      27600          115519.01      38.632172      38.632172      77.402542          16000 
   3971000   4125.7962      897756.11      7342.1341      898612.18      900683.56      893972.59      325.6629      -1626.2913      2.0223903      8532.2829      19148.639      27680.922      115373.67      38.615963      38.615963      77.370067          16000 
   3972000   4091.6198      904458.55      7349.6768      909500.19      905216.6       898658.85     -1940.7475     -660.96284      1693.8102      8461.605       19303.356      27764.961      115223.72      38.599226      38.599226      77.336533          16000 
   3973000   4128.7931      903614.4       7357.2182      902599.82      905623.21      902620.16     -1113.1599      380.15295     -1140.4941      8538.4807      19227.085      27765.565      115221.09      38.598932      38.598932      77.335944          16000 
   3974000   4144.1303      898805.02      7364.7564      901460.14      902430.67      892524.26      40.31958       750.08803      1413.647       8570.1984      19135.662      27705.861      115327.05      38.610761      38.610761      77.359645          16000 
   3975000   4097.9051      898227.58      7372.3043      901158.71      900075.42      893448.61      344.91788      11.065467      1380.0728      8474.6032      19193.966      27668.569      115393.07      38.618127      38.618127      77.374402          16000 
   3976000   4120.4111      893856.96      7379.8525      895059.54      897324.69      889186.65      496.98812      1204.3522      1450.8757      8521.1464      19166.379      27687.526      115359.05      38.614332      38.614332      77.366799          16000 
   3977000   4102.6662      905759.18      7387.3976      907079.33      907687.56      902510.66      1449.8546     -1227.1867      1218.5375      8484.4493      19301.552      27786.001      115183.16      38.594697      38.594697      77.327458          16000 
   3978000   4124.5211      905412.61      7394.9507      909513.92      910738.08      895985.83     -1344.7071     -64.883447      3172.1911      8529.6459      19266.621      27796.267      115165.06      38.592675      38.592675      77.323407          16000 
   3979000   4109.17        905633.29      7402.4969      910043.3       903089.02      903767.53      664.07337      130.22302      1711.7399      8497.8994      19279.022      27776.922      115198.64      38.596425      38.596425      77.330921          16000 
   3980000   4136.286       900557.98      7410.0475      903408.41      900833.98      897431.55     -868.99432      575.40916      996.22474      8553.9761      19171.168      27725.144      115289.7       38.606592      38.606592      77.351291          16000 
   3981000   4077.9082      902740.69      7417.5904      906422.1       902723.14      899076.84      483.528       -430.47235      229.70818      8433.249       19300.864      27734.113      115273.68      38.604804      38.604804      77.347708          16000 
   3982000   4098.776       901527.71      7425.142       910025.14      901361.63      893196.36      682.02361     -2353.8127      785.81846      8476.4042      19220.809      27697.214      115338.07      38.611991      38.611991      77.362109          16000 
   3983000   4091.9947      892126.88      7432.689       895272.44      892166.44      888941.76      686.80787     -622.41032      1407.346       8462.3803      19179.119      27641.5        115434.56      38.622755      38.622755      77.383676          16000 
   3984000   4125.7459      893390.11      7440.2352      897621.69      891396.54      891152.1      -261.89187     -434.94439     -812.81892      8532.179       19123.352      27655.531      115408.24      38.619819      38.619819      77.377793          16000 
   3985000   4115.5146      903845.3       7447.7804      903271.91      909792.67      898471.31     -273.55201     -1313.1524      1691.2497      8511.0203      19226.23       27737.251      115261.79      38.603477      38.603477      77.34505           16000 
   3986000   4126.5347      904246.18      7455.3276      905734.58      905448.19      901555.77     -867.45721     -133.55894     -2915.2347      8533.8102      19236.765      27770.575      115202.35      38.596839      38.596839      77.33175           16000 
   3987000   4131.4726      900107.45      7462.8798      906546.35      902275.2       891500.81     -2057.7683     -1674.5622      372.39709      8544.0218      19162.496      27706.518      115312.17      38.6091        38.6091        77.356316          16000 
   3988000   4134.31        896503.47      7470.4281      896393.73      899494.45      893622.23      1748.5276      895.54637      444.52039      8549.8897      19122.98       27672.87       115371.88      38.615763      38.615763      77.369666          16000 
   3989000   4108.9129      890804.74      7477.9737      890314.27      894250.24      887849.69     -918.28347     -1288.8772      1163.8168      8497.3678      19106.754      27604.122      115494.72      38.629463      38.629463      77.397115          16000 
   3990000   4103.446       893109.99      7485.5238      894936.77      896472.7       887920.5      -2080.4305      990.05232      298.91378      8486.0619      19139.218      27625.28       115456.61      38.625214      38.625214      77.388602          16000 
   3991000   4147.4182      902399.93      7493.0674      906021.1       905525.4       895653.3       28.548345      2121.6029     -753.37031      8576.9979      19165.06       27742.057      115247.44      38.601874      38.601874      77.341838          16000 
   3992000   4104.092       903562.77      7500.6187      903811.61      904299.57      902577.13     -609.9792      -738.73408      1577.3243      8487.398       19256.041      27743.439      115244.68      38.601567      38.601567      77.341223          16000 
   3993000   4091.0135      902742.87      7508.1634      904161.46      907280.85      896786.32     -127.69302     -965.12767     -50.535515      8460.3511      19262.336      27722.687      115280.08      38.605518      38.605518      77.34914           16000 
   3994000   4113.629       899240.21      7515.714       902802.2       898666.89      896251.54     -1875.3495      259.94999     -1101.1827      8507.1209      19177.672      27684.793      115346.93      38.61298       38.61298       77.364089          16000 
   3995000   4092.0809      901706.51      7523.2659      909738.76      901816.31      893564.45     -272.20911      404.93293      173.35037      8462.5587      19245.405      27707.964      115304.98      38.608298      38.608298      77.354709          16000 
   3996000   4098.5948      904849.87      7530.8144      904187.17      907637.7       902724.75      502.9378       811.8076       569.24512      8476.0295      19268.684      27744.713      115239.03      38.600936      38.600936      77.339958          16000 
   3997000   4122.3083      905211.79      7538.3649      903628.23      913529.92      898477.2      -1124.8877      774.10694     -574.05224      8525.0698      19255.878      27780.947      115174.23      38.593699      38.593699      77.32546           16000 
   3998000   4085.9436      897159.75      7545.9124      905551.01      897867.73      888060.5       629.74271     -3060.8585     -131.53816      8449.8664      19214.312      27664.178      115381.92      38.616883      38.616883      77.371911          16000 
   3999000   4096.2353      889328.06      7553.4584      893419.87      894331.21      880233.11      1679.7561      111.07476      871.75597      8471.15        19102.043      27573.193      115543.44      38.634894      38.634894      77.407997          16000 
   4000000   4106.7171      891398.99      7561.011       895562.88      888387.77      890246.32     -1023.6456      1244.0902      915.58875      8492.8268      19133.773      27626.6        115446.63      38.624101      38.624101      77.386372          16000 
Loop time of 7561.01 on 8 procs for 1000000 steps with 16000 atoms

Performance: 5.714 ns/day, 4.201 hours/ns, 132.257 timesteps/s
60.7% CPU use with 1 MPI tasks x 8 OpenMP threads

MPI task timing breakdown:
Section |  min time  |  avg time  |  max time  |%varavg| %total
---------------------------------------------------------------
Pair    | 7282.3     | 7282.3     | 7282.3     |   0.0 | 96.31
Neigh   | 12.66      | 12.66      | 12.66      |   0.0 |  0.17
Comm    | 39.243     | 39.243     | 39.243     |   0.0 |  0.52
Output  | 1.2312     | 1.2312     | 1.2312     |   0.0 |  0.02
Modify  | 201.1      | 201.1      | 201.1      |   0.0 |  2.66
Other   |            | 24.45      |            |       |  0.32

Nlocal:          16000 ave       16000 max       16000 min
Histogram: 1 0 0 0 0 0 0 0 0 0
Nghost:          17580 ave       17580 max       17580 min
Histogram: 1 0 0 0 0 0 0 0 0 0
Neighs:              0 ave           0 max           0 min
Histogram: 1 0 0 0 0 0 0 0 0 0
FullNghs:  1.98507e+06 ave 1.98507e+06 max 1.98507e+06 min
Histogram: 1 0 0 0 0 0 0 0 0 0

Total # of neighbors = 1985068
Ave neighs/atom = 124.06675
Neighbor list builds = 32070
Dangerous builds = 0
Total wall time: 8:26:56
