
atom_style atomic
units metal
boundary p p p
#atom_modify sort 0 0.0
newton on

read_data data.lammps
Reading data file ...
  orthogonal box = (0 0 0) to (3.89 3.89 3.89)
  1 by 1 by 1 MPI processor grid
  reading atoms ...
  8 atoms
  read_data CPU = 0.002 seconds
replicate 10 10 20
Replicating atoms ...
  orthogonal box = (0 0 0) to (38.9 38.9 77.8)
  1 by 1 by 1 MPI processor grid
  16000 atoms
  replicate CPU = 0.007 seconds

### interactions

pair_style flare
pair_coeff * * lmp.flare
Reading potential file lmp.flare with DATE: Thu

# compute unc all flare/std/atom L_inv_lmp.flare sparse_desc_lmp.flare
# compute MaxUnc all reduce max c_unc

mass 1 12.011000
mass 2 28.085000

thermo_style custom step temp press cpu pxx pyy pzz pxy pxz pyz ke pe etotal vol lx ly lz atoms    #c_MaxUnc
thermo 1000
timestep 0.0005
restart 100000 restart_*.dat

#################### Equilibrate at P and T_es ##############################
velocity all create $T 41928459 rot yes dist gaussian
velocity all create 4600 41928459 rot yes dist gaussian
fix mom all momentum 1000 linear 1 1 1 angular

fix 1 all npt temp $T $T $(100.0*dt) iso $P $P $(1000.0*dt)
fix 1 all npt temp 4600 $T $(100.0*dt) iso $P $P $(1000.0*dt)
fix 1 all npt temp 4600 4600 $(100.0*dt) iso $P $P $(1000.0*dt)
fix 1 all npt temp 4600 4600 0.050000000000000002776 iso $P $P $(1000.0*dt)
fix 1 all npt temp 4600 4600 0.050000000000000002776 iso 900000 $P $(1000.0*dt)
fix 1 all npt temp 4600 4600 0.050000000000000002776 iso 900000 900000 $(1000.0*dt)
fix 1 all npt temp 4600 4600 0.050000000000000002776 iso 900000 900000 0.5
dump 1 all custom 1000 1equil.bin id type x y z vx vy vz
run   10000 # report performance
Neighbor list info ...
  update every 1 steps, delay 10 steps, check yes
  max neighbors/atom: 2000, page size: 100000
  master list distance cutoff = 6
  ghost atom cutoff = 6
  binsize = 6, bins = 7 7 13
  1 neighbor lists, perpetual/occasional/extra = 1 0 0
  (1) pair flare/kk, perpetual
      attributes: full, newton on, kokkos_device
      pair build: full/bin/kk/device
      stencil: full/bin/3d
      bin: kk/device
Per MPI rank memory allocation (min/avg/max) = 17.74 | 17.74 | 17.74 Mbytes
   Step          Temp          Press           CPU            Pxx            Pyy            Pzz            Pxy            Pxz            Pyz           KinEng         PotEng         TotEng         Volume           Lx             Ly             Lz          Atoms   
         0   4600           484612.06      0              483959.69      484909.24      484967.25     -911.23018      411.15236     -1028.7751      9512.9521      10000.526      19513.478      117727.74      38.9           38.9           77.8               16000 
      1000   4672.5421      901265.36      7.5698257      901199.38      898923.13      903673.56     -2254.7029     -1168.775       1074.1325      9662.9715      19756.868      29419.839      116365.87      38.74942       38.74942       77.49884           16000 
      2000   4597.727       895020.68      15.104112      889969.43      893736.81      901355.78     -2071.7021      255.68458     -618.50826      9508.2515      19716.619      29224.87       116434.09      38.756991      38.756991      77.513981          16000 
      3000   4590.26        900971.28      22.638856      901073.77      896320.53      905519.54     -2122.6406      1248.8477      1705.1378      9492.8095      19645.855      29138.665      116115.1       38.721565      38.721565      77.443129          16000 
      4000   4629.6678      899334.72      30.171671      896478.71      900474.16      901051.3      -44.975738      1062.3325      712.20877      9574.3062      19754.489      29328.795      116372.27      38.750131      38.750131      77.500261          16000 
      5000   4569.2881      898710.61      37.704768      897749.73      897762.66      900619.42      609.54939     -1403.2102     -1743.1555      9449.4388      19756.157      29205.595      116264.44      38.738159      38.738159      77.476317          16000 
      6000   4598.646       904321.81      45.236464      902781.64      908509.36      901674.42     -1617.86        828.53615     -877.6597       9510.1519      19733.574      29243.725      116168         38.727445      38.727445      77.454889          16000 
      7000   4606.8306      900840.76      52.768615      897886.17      900412.67      904223.45     -1412.2974     -1058.9031      811.62868      9527.0779      19798.44       29325.518      116356.12      38.748337      38.748337      77.496675          16000 
      8000   4625.9871      897140.7       60.30155       898677.91      898350.22      894393.98     -408.18497     -64.887876     -1481.8022      9566.6943      19650.394      29217.089      116284.74      38.740413      38.740413      77.480826          16000 
      9000   4562.8903      897523.1       67.83297       894889.76      901753.36      895926.17     -291.1431      -1081.0303      643.34735      9436.208       19649.453      29085.661      116253.23      38.736913      38.736913      77.473826          16000 
     10000   4583.4249      886703.49      75.365103      886501.64      885421         888187.83      887.09765      885.75682      657.97266      9478.6741      19613.077      29091.751      116659.28      38.781961      38.781961      77.563923          16000 
Loop time of 75.3651 on 8 procs for 10000 steps with 16000 atoms

Performance: 5.732 ns/day, 4.187 hours/ns, 132.687 timesteps/s
61.5% CPU use with 1 MPI tasks x 8 OpenMP threads

MPI task timing breakdown:
Section |  min time  |  avg time  |  max time  |%varavg| %total
---------------------------------------------------------------
Pair    | 72.381     | 72.381     | 72.381     |   0.0 | 96.04
Neigh   | 0.12969    | 0.12969    | 0.12969    |   0.0 |  0.17
Comm    | 0.36739    | 0.36739    | 0.36739    |   0.0 |  0.49
Output  | 0.0099425  | 0.0099425  | 0.0099425  |   0.0 |  0.01
Modify  | 2.2408     | 2.2408     | 2.2408     |   0.0 |  2.97
Other   |            | 0.236      |            |       |  0.31

Nlocal:          16000 ave       16000 max       16000 min
Histogram: 1 0 0 0 0 0 0 0 0 0
Nghost:          17228 ave       17228 max       17228 min
Histogram: 1 0 0 0 0 0 0 0 0 0
Neighs:              0 ave           0 max           0 min
Histogram: 1 0 0 0 0 0 0 0 0 0
FullNghs:  1.95722e+06 ave 1.95722e+06 max 1.95722e+06 min
Histogram: 1 0 0 0 0 0 0 0 0 0

Total # of neighbors = 1957218
Ave neighs/atom = 122.32613
Neighbor list builds = 340
Dangerous builds = 0
run  990000
Per MPI rank memory allocation (min/avg/max) = 17.85 | 17.85 | 17.85 Mbytes
   Step          Temp          Press           CPU            Pxx            Pyy            Pzz            Pxy            Pxz            Pyz           KinEng         PotEng         TotEng         Volume           Lx             Ly             Lz          Atoms   
     10000   4583.4249      886703.49      0              886501.64      885421         888187.83      887.09765      885.75682      657.97266      9478.6741      19613.077      29091.751      116659.28      38.781961      38.781961      77.563923          16000 
     11000   4588.2564      899102.22      7.5294018      904628.75      897629.02      895048.9      -2108.5487      10.765607     -21.819494      9488.6658      19672.968      29161.633      116294.85      38.741535      38.741535      77.483071          16000 
     12000   4625.9972      902979.09      15.064543      899111.67      903122.55      906703.05      619.42901      588.17478     -2269.3047      9566.7152      19707.347      29274.062      116187.97      38.729664      38.729664      77.459327          16000 
     13000   4638.7385      895634.28      22.595625      896456.87      898944.04      891501.93      303.53231      311.6644       1611.9225      9593.0646      19664.493      29257.558      116353.21      38.748015      38.748015      77.49603           16000 
     14000   4619.6993      898651.95      30.128968      899529.53      900689.8       895736.53     -162.11042     -191.65886      631.76669      9553.6908      19628.805      29182.495      116220.84      38.733315      38.733315      77.46663           16000 
     15000   4618.5144      891361.52      37.661736      894462.26      890863.24      888759.05      586.08622     -451.71974     -1006.1156      9551.2406      19630.198      29181.438      116522.14      38.766758      38.766758      77.533516          16000 
     16000   4586.4792      892424.67      45.194429      896891.2       892230.66      888152.15      2287.0743      1207.2545      735.86932      9484.9905      19613.379      29098.369      116378.37      38.750808      38.750808      77.501616          16000 
     17000   4631.1113      899375.27      52.726032      902534.68      891322.1       904269.03      174.87176      534.51512      1387.8153      9577.2913      19656.561      29233.852      116248.94      38.736437      38.736437      77.472874          16000 
     18000   4594.9354      903738.45      60.258165      903737.9       905080.52      902396.93     -595.8766      -264.86758      2505.2586      9502.4784      19740.928      29243.407      116145.63      38.724958      38.724958      77.449916          16000 
     19000   4590.4472      900256.33      67.789666      901405.75      895472.95      903890.28      859.98454     -1658.1989      1478.2273      9493.1965      19680.968      29174.164      116210.4       38.732156      38.732156      77.464311          16000 
     20000   4631.9526      900763.68      75.320853      897232.68      902930.92      902127.43     -53.866762     -814.22388     -625.47389      9579.0311      19722.071      29301.103      116318.6       38.744173      38.744173      77.488346          16000 
     21000   4578.1914      914007.28      82.853366      913724.53      914659.94      913637.36      571.72208      183.20075      785.63652      9467.8512      19946.475      29414.327      116001.46      38.708929      38.708929      77.417858          16000 
     22000   4638.0524      895126.02      90.384719      894254.82      894742.65      896380.58      370.11929      94.492907     -131.03455      9591.6456      19576.96       29168.605      116329.19      38.745348      38.745348      77.490697          16000 
     23000   4598.8716      886854.41      97.921443      885613.48      889601.13      885348.61     -1261.884      -213.98121     -1698.9861      9510.6186      19585.53       29096.149      116563.36      38.771329      38.771329      77.542659          16000 
     24000   4604.6704      898971.94      105.45171      892696.12      902930.71      901288.99      143.27194      1882.615      -186.03141      9522.6107      19603.973      29126.584      116216.73      38.732859      38.732859      77.465718          16000 
     25000   4586.1394      897756.56      112.98478      898976.53      899812.84      894480.32     -2966.5644      762.06454      1484.2479      9484.2878      19714.045      29198.332      116289.47      38.740938      38.740938      77.481876          16000 
     26000   4599.8794      904340.86      120.51941      907111.27      903411.14      902500.16     -2572.0596      423.54696      1484.1163      9512.7027      19739.692      29252.395      116176.92      38.728435      38.728435      77.456871          16000 
     27000   4645.739       907749.35      128.05328      910076.98      904269.48      908901.6       848.16524      1063.1904      1230.6146      9607.5419      19742.864      29350.406      116093.9       38.719208      38.719208      77.438416          16000 
     28000   4632.3818      895435.25      135.5867       898178.73      888329.34      899797.68      89.47852      -364.1768      -707.62821      9579.9186      19620.88       29200.799      116391.92      38.752312      38.752312      77.504623          16000 
     29000   4580.6983      884749.65      143.11645      879404.7       892047.99      882796.28      1786.4814      372.88511      212.24944      9473.0355      19517.315      28990.35       116520.5       38.766576      38.766576      77.533152          16000 
     30000   4591.761       897548.42      150.64978      895338.32      900352.43      896954.51     -1419.0812     -894.98361     -567.51284      9495.9136      19685.404      29181.317      116330.58      38.745502      38.745502      77.491005          16000 
     31000   4625.3393      897176.76      158.183        901319.09      896779.73      893431.45     -102.09415     -1672.5059     -1130.1543      9565.3545      19648.458      29213.813      116407.38      38.754027      38.754027      77.508055          16000 
     32000   4539.0205      899971.69      165.71696      900588.13      908938.48      890388.47     -578.43021      76.02013      -1665.6919      9386.8445      19688.276      29075.12       116241.7       38.735633      38.735633      77.471266          16000 
     33000   4618.6523      892214.7       173.24743      888805.63      896128.53      891709.96      661.97436      1587.5036     -326.05437      9551.5257      19648.788      29200.313      116509         38.765301      38.765301      77.530602          16000 
     34000   4570.745       896521.9       180.78014      891056.56      900134.02      898375.11     -1362.6012     -274.43338      2885.589       9452.4518      19623.423      29075.875      116306.43      38.742821      38.742821      77.485643          16000 
     35000   4600.8302      902996.45      188.31228      903214.51      903199.3       902575.53     -1167.333      -300.38742     -1587.9173      9514.6691      19763.237      29277.906      116222.28      38.733475      38.733475      77.46695           16000 
     36000   4605.5725      908173.27      195.84655      905526.28      911996.32      906997.21      1438.2069     -524.23313     -1612.3252      9524.4762      19799.391      29323.867      116048.74      38.714187      38.714187      77.428374          16000 
     37000   4598.435       905447.67      203.37504      906587.98      899658.55      910096.49      940.877        487.43137     -608.45261      9509.7155      19821.713      29331.428      116207.2       38.7318        38.7318        77.4636            16000 
     38000   4589.9886      904171.09      210.90721      903948.47      904576.72      903988.07     -1637.659       1123.8974     -4.5492312      9492.2481      19703.244      29195.492      116131.69      38.723409      38.723409      77.446818          16000 
     39000   4600.4562      901557.76      218.44086      901292.71      901125.13      902255.44      189.45801      1231.2765     -380.98882      9513.8956      19693.333      29207.228      116317.57      38.744059      38.744059      77.488117          16000 
     40000   4606.1916      890858.12      225.96973      887338.77      891601.55      893634.04     -1722.1761      1144.7899     -261.63692      9525.7565      19579.656      29105.412      116457.94      38.759637      38.759637      77.519273          16000 
     41000   4608.2534      891794.47      233.50135      890192.92      891117.01      894073.47     -199.20013      784.20494      351.0136       9530.0204      19577.607      29107.627      116425.72      38.756062      38.756062      77.512124          16000 
     42000   4633.5807      904136.32      241.03185      908538.12      903132.19      900738.65     -1686.5853     -979.00282      1406.2683      9582.3981      19686.69       29269.088      116115.54      38.721614      38.721614      77.443228          16000 
     43000   4615.4489      900827.39      248.5649       896373         904018.75      902090.41      621.11542     -1297.6472      212.07462      9544.9009      19719.342      29264.243      116301.06      38.742225      38.742225      77.48445           16000 
     44000   4579.742       900812.56      256.09432      896636.51      902697.35      903103.83      1583.4275      757.87298     -824.00186      9471.0579      19696.211      29167.269      116200.34      38.731038      38.731038      77.462076          16000 
     45000   4671.5378      904799.54      263.62488      898627.79      905310.05      910460.78     -1108.9502     -138.56722     -1673.1059      9660.8946      19744.105      29405          116240.91      38.735544      38.735544      77.471089          16000 
     46000   4578.2022      910719.2       271.15668      909530.6       911269.79      911357.19     -766.42902      733.512       -209.59508      9467.8736      19801.112      29268.985      115962.77      38.704625      38.704625      77.40925           16000 
     47000   4635.2034      897368.26      278.68903      898212.79      897667.96      896224.04     -721.90034      2546.454      -379.72028      9585.7538      19655.383      29241.136      116349.76      38.747632      38.747632      77.495264          16000 
     48000   4563.2989      900709.03      286.22324      896000.96      905145.37      900980.76      1571.2217     -332.26575      1358.0956      9437.053       19724.067      29161.12       116263.38      38.73804       38.73804       77.47608           16000 
     49000   4616.4925      898771.55      293.75297      903615.53      902671.9       890027.22      421.74794      534.17748     -17.398961      9547.0591      19730.322      29277.381      116431.27      38.756678      38.756678      77.513356          16000 
     50000   4573.5464      902672.83      301.28652      897012.19      903104.11      907902.19     -174.47576     -457.01225     -938.64015      9458.2452      19725.285      29183.53       116282.48      38.740162      38.740162      77.480323          16000 
     51000   4585.0209      895345.14      308.81446      896444.48      896279.68      893311.27      1207.7879     -1329.428      -74.388379      9481.9748      19736.46       29218.435      116404.25      38.75368       38.75368       77.507359          16000 
     52000   4676.886       896251.35      316.34809      896329.36      895241.98      897182.72      194.21698      310.91021      550.12484      9671.9549      19733.412      29405.366      116452.07      38.758986      38.758986      77.517972          16000 
     53000   4576.9323      895202.9       323.87983      899038.27      894037.41      892533.01      833.27109     -282.93305     -703.63034      9465.2473      19666.414      29131.661      116382.68      38.751286      38.751286      77.502571          16000 
     54000   4606.0141      894557.76      331.41183      892618.3       896593.69      894461.27      334.43325      2082.9193      2077.6683      9525.3894      19601.382      29126.772      116475.99      38.76164       38.76164       77.523279          16000 
     55000   4616.9556      899542.02      338.94499      895002.22      908777.15      894846.68      184.73226      1116.4998      1875.6441      9548.0167      19798.633      29346.65       116451.31      38.758902      38.758902      77.517803          16000 
     56000   4605.138       899292.7       346.47423      900631.96      898559.01      898687.13      322.67925      956.39243     -745.21846      9523.5776      19680.02       29203.597      116287.33      38.740701      38.740701      77.481401          16000 
     57000   4627.8061      903694         354.00235      895020.6       908897.8       907163.59      259.41009     -3489.8991      273.55483      9570.4561      19734.688      29305.144      116197.18      38.730687      38.730687      77.461374          16000 
     58000   4575.3006      900742.61      361.53448      904858.48      898615.17      898754.2       999.53989     -484.60895     -1647.5166      9461.8728      19708.301      29170.174      116221.09      38.733344      38.733344      77.466687          16000 
     59000   4543.1933      889860.74      369.06564      892487.8       888740.3       888354.14      2628.057      -427.07228     -571.74548      9395.4739      19625.053      29020.527      116516.46      38.766129      38.766129      77.532257          16000 
     60000   4594.7072      897727.3       376.59678      893838.19      900707.52      898636.18      1880.0078     -1386.5784      1501.9323      9502.0064      19669.918      29171.925      116361.02      38.748882      38.748882      77.497764          16000 
     61000   4654.6271      907785.08      384.13065      908328.53      904353.86      910672.85     -89.042522      153.91051     -473.79758      9625.9227      19829.966      29455.889      116196         38.730555      38.730555      77.46111           16000 
     62000   4600.0599      903835.44      391.6588       903370.12      901264.7       906871.5       1243.7526     -1265.1046     -1454.3888      9513.076       19734.066      29247.142      116192.2       38.730133      38.730133      77.460267          16000 
     63000   4613.1284      898957.05      399.18707      898519.11      896957.5       901394.54      853.59623      873.67456     -2497.8918      9540.1021      19785.943      29326.045      116401.62      38.753388      38.753388      77.506775          16000 
     64000   4572.8411      902987.15      406.71915      903168.04      906110.32      899683.09     -1112.7338     -304.4529       1154.9818      9456.7866      19758.853      29215.639      116239.05      38.735338      38.735338      77.470676          16000 
     65000   4618.1831      897698.28      414.24711      897199.87      895656.82      900238.16      1310.7868      1341.4098      98.022876      9550.5554      19694.122      29244.677      116374.08      38.750331      38.750331      77.500663          16000 
     66000   4568.1356      912500.85      421.77786      912332.47      909013.2       916156.86     -1264.4299     -539.88886     -146.42767      9447.0554      19884.407      29331.463      116043.69      38.713626      38.713626      77.427251          16000 
     67000   4646.23        910173.19      429.31092      912659.92      908081.34      909778.31      520.54336      216.17794      933.99145      9608.5572      19860.653      29469.21       116070.2       38.716573      38.716573      77.433146          16000 
     68000   4552.9909      901313.36      436.84311      897903.42      900068.2       905968.46     -702.06229      1575.0068     -436.10262      9415.7357      19815.292      29231.027      116297.92      38.741876      38.741876      77.483752          16000 
     69000   4624.4394      896389.9       444.37576      901276.72      895984.06      891908.93      1151.3225      567.56076     -336.3791       9563.4935      19578.732      29142.225      116250.58      38.736618      38.736618      77.473237          16000 
     70000   4591.7273      895668.95      451.9065       894521.82      895559.68      896925.34     -676.72096      938.22571     -2018.3845      9495.8438      19635.645      29131.489      116285.29      38.740473      38.740473      77.480947          16000 
     71000   4620.3794      900217.83      459.44038      904083.42      894115.21      902454.86     -10.261416     -1107.2114     -322.16039      9555.0973      19714.74       29269.837      116340.3       38.746582      38.746582      77.493163          16000 
     72000   4604.525       893393.8       466.97146      887324.61      899906.58      892950.21      997.46854     -684.30315      2248.0911      9522.31        19671.179      29193.489      116509.73      38.765382      38.765382      77.530764          16000 
     73000   4593.0081      909145.25      474.5011       910281.17      908410.07      908744.5       906.62121      407.07636      419.68745      9498.4926      19819.191      29317.684      116100.25      38.719914      38.719914      77.439828          16000 
     74000   4557.8486      908016.98      482.03334      903742.22      905645.43      914663.29     -1614.0381      932.81538     -886.49903      9425.7815      19862.711      29288.493      116119.18      38.722018      38.722018      77.444037          16000 
     75000   4613.3859      905151.07      489.56454      901545.25      903619.46      910288.48     -43.170388      839.07074      2659.2237      9540.6346      19776.663      29317.298      116195.7       38.730522      38.730522      77.461044          16000 
     76000   4607.2348      906366.43      497.09518      904959.86      904187.57      909951.85      1108.4523     -347.39309     -468.51851      9527.9138      19763.749      29291.663      116194.23      38.730359      38.730359      77.460718          16000 
     77000   4608.1854      903831.91      504.62384      906825.17      899309.16      905361.4      -257.66418      1832.783      -973.90036      9529.8798      19732.577      29262.457      116227.15      38.734016      38.734016      77.468033          16000 
     78000   4563.026       900734.77      512.15152      900093.21      900040.41      902070.7       2034.8432     -2578.8593     -1493.0519      9436.4886      19796.625      29233.114      116302.67      38.742404      38.742404      77.484808          16000 
     79000   4551.558       892767.58      519.68481      896519.98      889267.02      892515.75      448.83402     -1934.2275      8.7164237      9412.7725      19558.004      28970.776      116411.43      38.754477      38.754477      77.508953          16000 
     80000   4609.7842      892272.29      527.21649      889531.98      890201.45      897083.44     -2660.4073     -738.34077      387.91523      9533.1861      19573.549      29106.735      116443.68      38.758055      38.758055      77.51611           16000 
     81000   4675.4396      901573.16      534.7472       895973.71      903181.57      905564.19     -1792.269       670.28221     -740.26006      9668.9636      19685.682      29354.645      116234.95      38.734883      38.734883      77.469765          16000 
     82000   4626.95        904244.8       542.28073      905588.08      903651.41      903494.93      113.14415     -428.04994     -28.599659      9568.6856      19866.56       29435.245      116297.91      38.741875      38.741875      77.48375           16000 
     83000   4603.3642      890687.67      549.8084       891931.68      890861.59      889269.74     -921.73811     -917.06724     -538.62627      9519.9093      19583.152      29103.061      116438.67      38.757499      38.757499      77.514999          16000 
     84000   4562.4851      890382.21      557.33939      890340.68      890042.19      890763.75      391.39837     -1240.4917     -809.93991      9435.37        19528.254      28963.624      116415.31      38.754907      38.754907      77.509813          16000 
     85000   4634.2017      905134.72      564.86909      909696.71      902206.13      903501.33     -944.70564     -119.60806     -2428.1463      9583.6822      19738.295      29321.978      116160.85      38.72665       38.72665       77.453299          16000 
     86000   4590.8895      906071.68      572.39847      906413.52      912003.59      899797.94      907.91564      798.24372     -235.61502      9494.1112      19810.853      29304.964      116226.49      38.733944      38.733944      77.467887          16000 
     87000   4682.0988      899876.51      579.92922      898968.94      896944.58      903716.02      151.8685      -954.29076      699.9144       9682.7351      19627.031      29309.766      116274.05      38.739225      38.739225      77.478451          16000 
     88000   4582.238       907063.35      587.46         904378.08      909410.95      907401.02      799.76571      1367.6012     -1781.0116      9476.2196      19794.35       29270.569      116139.48      38.724275      38.724275      77.44855           16000 
     89000   4615.622       896175.77      594.98918      900410.58      894365.76      893750.98      69.630556      1952.6264     -283.49385      9545.2589      19720.847      29266.106      116327.58      38.74517       38.74517       77.490339          16000 
     90000   4558.7848      901176.46      602.52264      901046.87      901207.93      901274.59     -175.56383      858.61771     -1591.9381      9427.7177      19695.646      29123.364      116212.32      38.732369      38.732369      77.464738          16000 
     91000   4572.2736      894791.76      610.05258      897534.03      895928.25      890913.01      471.05704     -505.86424      112.74329      9455.6129      19681.171      29136.784      116481.66      38.762269      38.762269      77.524537          16000 
     92000   4573.6433      898565.82      617.58434      897657.19      902721.36      895318.91      309.08055      956.70414      615.25615      9458.4455      19789.495      29247.94       116307.03      38.742888      38.742888      77.485777          16000 
     93000   4633.844       908086.69      625.11735      903701.08      907955.97      912603.02      1991.929       729.82659     -429.28876      9582.9425      19810.068      29393.01       116137.36      38.724039      38.724039      77.448078          16000 
     94000   4595.3306      908403.5       632.64533      904538.37      908730.98      911941.16     -758.98051      1302.56       -132.37833      9503.2956      19838.505      29341.801      116151.73      38.725637      38.725637      77.451273          16000 
     95000   4639.5564      900405.21      640.18027      894232.7       903653.19      903329.74     -680.76793     -148.07961      1722.2591      9594.756       19674.972      29269.728      116243.65      38.735849      38.735849      77.471698          16000 
     96000   4599.448       897738.77      647.71167      898731.72      900101.68      894382.92      1342.9454      878.06944     -1923.0623      9511.8105      19735.139      29246.949      116349.25      38.747575      38.747575      77.49515           16000 
     97000   4616.1257      895468.27      655.23826      897226.57      891293         897885.23     -906.01034     -197.42048      31.141904      9546.3005      19749.37       29295.671      116430.52      38.756595      38.756595      77.51319           16000 
     98000   4621.4807      895838.47      662.7689       901904.36      890720.94      894890.09     -1508.5018     -762.14536      756.8436       9557.3748      19618.155      29175.53       116340.37      38.746589      38.746589      77.493179          16000 
     99000   4533.5618      899301.81      670.30004      898940.62      897755.76      901209.06      1410.4204      187.62396      2438.966       9375.5556      19680.937      29056.492      116231.22      38.734468      38.734468      77.468936          16000 
    100000   4628.4326      898238.49      677.8382       902561.27      896604.56      895549.63      1034.8798      2574.332       2353.1369      9571.7516      19714.259      29286.01       116355.08      38.748223      38.748223      77.496446          16000 
    101000   4636.3024      902438.12      685.36733      903853.81      901632.01      901828.54      118.11832     -748.57006     -603.78744      9588.0266      19770.603      29358.63       116266.97      38.738439      38.738439      77.476878          16000 
    102000   4597.0923      895538.94      692.89887      893531.52      899631.66      893453.63     -4112.6566      283.87166     -1083.9746      9506.9388      19629.073      29136.012      116343.47      38.746934      38.746934      77.493867          16000 
    103000   4575.9343      891221.28      700.42966      894308.49      889878.35      889477.02     -589.03729      1224.9412     -1050.5812      9463.1835      19710.682      29173.866      116601         38.775502      38.775502      77.551004          16000 
    104000   4582.7593      904145.03      707.95846      898302.94      905727.03      908405.12     -576.68737      741.96492      486.29198      9477.2978      19745.898      29223.195      116160.85      38.72665       38.72665       77.4533            16000 
    105000   4614.6956      899910.66      715.49116      898302.74      904110.68      897318.57      312.5872      -614.38212      141.94768      9543.3431      19739.75       29283.093      116389.93      38.752091      38.752091      77.504182          16000 
    106000   4633.7088      895240.8       723.02235      898711.28      892397.67      894613.47      1827.1315     -1024.2877     -668.5309       9582.6629      19618.649      29201.312      116341.48      38.746712      38.746712      77.493424          16000 
    107000   4664.7416      907474.53      730.55636      913080.19      905946.21      903397.19      1116.2605     -81.0269       -353.82205      9646.8398      19753.972      29400.812      116108.54      38.720836      38.720836      77.441672          16000 
    108000   4596.7449      906762.08      738.09039      908809.84      909354.86      902121.56     -2121.0147     -2390.9225      876.72421      9506.2204      19818.836      29325.056      116177.25      38.728472      38.728472      77.456944          16000 
    109000   4576.4365      898945.94      745.62284      898290.03      901980.77      896567.02     -2185.8535     -930.88045      284.54562      9464.222       19769.793      29234.015      116390.7       38.752176      38.752176      77.504352          16000 
    110000   4577.0681      893392.53      753.15373      898560.69      894753.06      886863.85      821.11945      916.12625      922.08023      9465.5282      19633.461      29098.989      116396.26      38.752793      38.752793      77.505586          16000 
    111000   4602.5362      895133.4       760.68495      889431.4       894722.17      901246.63      919.94714     -55.913931      1107.142       9518.197       19707.857      29226.054      116437.24      38.75734       38.75734       77.51468           16000 
    112000   4612.079       901622.97      768.2169       901381.37      902546.18      900941.36      133.54538     -344.35388     -464.17847      9537.9318      19766.124      29304.056      116291.13      38.741123      38.741123      77.482245          16000 
    113000   4647.092       905015.81      775.74772      903907.09      903999.03      907141.32     -618.87208      555.02328     -600.67271      9610.3399      19819.8        29430.14       116169.34      38.727594      38.727594      77.455187          16000 
    114000   4623.1231      900089.51      783.27974      898904.62      898675.32      902688.59     -357.39967      37.770169     -889.85837      9560.7713      19707.325      29268.096      116323.53      38.74472       38.74472       77.48944           16000 
    115000   4579.0404      891941.35      790.81096      895925.29      885532.31      894366.45     -695.54775     -2408.9568     -1186.8957      9469.607       19639.97       29109.577      116454.33      38.759237      38.759237      77.518474          16000 
    116000   4575.0681      896627.78      798.34406      894157.62      897524.15      898201.56     -131.72791     -152.5402       1725.6278      9461.392       19707.659      29169.051      116464.94      38.760413      38.760413      77.520827          16000 
    117000   4631.2865      901076.85      805.87424      901153.81      898564.44      903512.3       933.7854       1582.219       1106.3976      9577.6536      19792.956      29370.61       116414.63      38.754831      38.754831      77.509663          16000 
    118000   4619.2025      907704.73      813.40657      911150.42      906192.42      905771.34     -1124.2876      774.56716      754.86487      9552.6635      19758.35       29311.014      116055.47      38.714936      38.714936      77.429871          16000 
    119000   4629.1428      903877.84      820.93699      904914.52      903884.58      902834.44     -1987.0622      308.58366     -626.72443      9573.2203      19814.811      29388.032      116278.14      38.73968       38.73968       77.479359          16000 
    120000   4605.0219      895434.77      828.46795      896394.68      898135.11      891774.51      1859.7125      351.99471     -778.25985      9523.3375      19684.814      29208.151      116350.7       38.747736      38.747736      77.495473          16000 
    121000   4581.0427      891349.02      835.99602      894566.79      891471.25      888009.02     -633.23182      6.2611608      1507.6853      9473.7478      19589.672      29063.42       116389.6       38.752054      38.752054      77.504108          16000 
    122000   4583.7154      900198.63      843.52942      900964.93      897050.67      902580.28     -887.27975      761.56589     -121.54025      9479.2749      19726.082      29205.357      116270.7       38.738853      38.738853      77.477706          16000 
    123000   4591.4378      900719.2       851.06352      903760.19      900330.93      898066.5       178.93154      164.67815      1920.5303      9495.2451      19688.054      29183.3        116211.6       38.732289      38.732289      77.464578          16000 
    124000   4630.4364      895582.39      858.59602      891643.99      901256.54      893846.65      653.21764     -2299.4301      2046.5413      9575.8956      19699.373      29275.269      116426.32      38.756129      38.756129      77.512259          16000 
    125000   4554.9832      901770.47      866.12823      902586.08      899766.69      902958.64      1182.6471      3604.2671     -1725.4746      9419.8558      19713.666      29133.522      116146.26      38.725028      38.725028      77.450056          16000 
    126000   4644.8908      906842.51      873.66004      908568.8       906789.93      905168.8      -5.4677177     -888.03296     -1624.978       9605.7877      19848.231      29454.019      116208.27      38.731919      38.731919      77.463839          16000 
    127000   4604.0388      900388.63      881.19371      901741.51      903511.81      895912.58     -644.03679     -2598.4279     -1528.8821      9521.3044      19764.59       29285.894      116307.7       38.742962      38.742962      77.485924          16000 
    128000   4565.5426      898648.53      888.72434      898712.08      896181.7       901051.82      890.5896       185.63387     -142.0526       9441.693       19660.797      29102.49       116316.02      38.743886      38.743886      77.487772          16000 
    129000   4594.9658      900997.72      896.25603      901588.3       899664.94      901739.93      955.45057     -1279.5648     -89.046567      9502.5412      19711.356      29213.897      116270.52      38.738834      38.738834      77.477668          16000 
    130000   4615.8413      907380.66      903.78716      913543.53      902766.28      905832.16      174.04748     -1586.8235     -373.58152      9545.7123      19803.417      29349.129      116108.39      38.720819      38.720819      77.441638          16000 
    131000   4591.8234      906564.19      911.32086      907701.44      905018.17      906972.97     -261.89925      766.49944      74.366396      9496.0426      19827.139      29323.182      116105.68      38.720518      38.720518      77.441037          16000 
    132000   4587.3934      906417.35      918.85648      907472.24      907604.84      904174.97     -1598.0052      8.2758758      332.64331      9486.8812      19801.933      29288.814      116141.26      38.724472      38.724472      77.448945          16000 
    133000   4623.0331      899220.06      926.38675      898465.89      896472.85      902721.43     -104.90764      356.12066      575.29571      9560.5853      19678.198      29238.783      116308.68      38.743071      38.743071      77.486142          16000 
    134000   4530.4815      901771.91      933.9184       900388.31      900786.82      904140.61     -235.66275      614.52592      2005.9673      9369.1856      19751.926      29121.111      116218.97      38.733108      38.733108      77.466215          16000 
    135000   4583.4477      888971.84      941.45174      887821.8       888952.37      890141.33      860.85668      2142.077       348.86934      9478.7214      19681.746      29160.467      116522.71      38.766821      38.766821      77.533642          16000 
    136000   4560.2444      905560.99      948.98322      904972.15      909368.45      902342.36     -702.65516     -170.89744     -103.89683      9430.7362      19789.141      29219.878      116143.95      38.724772      38.724772      77.449544          16000 
    137000   4578.2989      909952.22      956.51542      910205.04      910134.06      909517.57      761.35069     -470.63309     -351.47622      9468.0736      19912.062      29380.135      116126.73      38.722858      38.722858      77.445716          16000 
    138000   4581.6636      901929.74      964.0487       898065.31      903803.99      903919.93      915.70058      17.126026      383.1483       9475.0318      19693.081      29168.113      116202.25      38.73125       38.73125       77.4625            16000 
    139000   4581.5694      896154.06      971.57988      895216.41      896593.83      896651.95      250.29387      950.43703      760.69355      9474.837       19754.267      29229.104      116490.04      38.763198      38.763198      77.526396          16000 
    140000   4568.6327      901488.7       979.10936      898748.27      907338.5       898379.34     -1548.6893      163.3258      -1016.9821      9448.0834      19733.921      29182.005      116252.34      38.736815      38.736815      77.473629          16000 
    141000   4639.2184      901646.71      986.63937      904119.41      900482.74      900337.99      211.09865     -62.733349     -265.76007      9594.0571      19769.86       29363.917      116330.11      38.74545       38.74545       77.490901          16000 
    142000   4630.8536      903372.71      994.17095      904822.45      899631.73      905663.95      971.65942      3840.7095      41.121405      9576.7583      19691.596      29268.354      116155.94      38.726104      38.726104      77.452208          16000 
    143000   4584.1156      898093.57      1001.7023      893332.9       899612.77      901335.04      495.0845      -993.8037      -219.04526      9480.1026      19665.335      29145.438      116277.23      38.739579      38.739579      77.479157          16000 
    144000   4601.5641      900300.43      1009.2347      902567.8       899373.69      898959.8       420.02441      1031.2574     -96.300258      9516.1866      19732.954      29249.141      116310.09      38.743227      38.743227      77.486455          16000 
    145000   4587.8305      909315.37      1016.7635      906398.73      914665.84      906881.56      2551.8123     -171.49717     -410.71102      9487.7852      19933.59       29421.375      116156.94      38.726215      38.726215      77.45243           16000 
    146000   4580.1918      903005.88      1024.2958      897849.47      904745.89      906422.29     -754.04665      404.061       -1665.2022      9471.988       19796.465      29268.453      116276.18      38.739462      38.739462      77.478924          16000 
    147000   4550.3263      891520.8       1031.8277      888487.93      892049.67      894024.81      656.57114     -191.92507     -71.62816       9410.2251      19570.842      28981.068      116444.94      38.758195      38.758195      77.51639           16000 
    148000   4571.6958      896185.55      1039.3601      893423.91      898018.88      897113.85     -234.03601      475.96399     -2457.3518      9454.4181      19756.462      29210.88       116313.05      38.743556      38.743556      77.487112          16000 
    149000   4643.543       910345.56      1046.8941      911472.52      914380.38      905183.79     -1545.9401      1308.1512      1301.106       9603.0004      19876.78       29479.78       116143.78      38.724752      38.724752      77.449504          16000 
    150000   4583.7934      901313.94      1054.426       904251.54      903070.56      896619.73      1493.9055      959.14533     -66.113282      9479.4364      19805.96       29285.396      116340.36      38.746589      38.746589      77.493178          16000 
    151000   4576.2228      896801.86      1061.9594      896368.64      894610.64      899426.3      -119.49007      95.918034      401.49814      9463.78        19722.523      29186.303      116370.61      38.749946      38.749946      77.499892          16000 
    152000   4575.1887      900512.5       1069.4904      900110.94      899718.08      901708.48      1449.957       1095.1052     -521.3491       9461.6416      19735.332      29196.974      116242.41      38.735711      38.735711      77.471422          16000 
    153000   4662.0311      896523.13      1077.0212      894989.21      897981.78      896598.39      359.81676     -792.85378     -790.50399      9641.2345      19664.814      29306.049      116370.6       38.749945      38.749945      77.499891          16000 
    154000   4583.8206      894062.09      1084.5532      893407.85      895505.43      893273        -223.06532      91.633437     -902.57403      9479.4926      19596.296      29075.789      116309.25      38.743134      38.743134      77.486268          16000 
    155000   4592.1031      898603.05      1092.0848      894412.61      906532.05      894864.48      1874.3244      1482.7035      1013.7091      9496.621       19749.646      29246.267      116372.07      38.750108      38.750108      77.500216          16000 
    156000   4608.7268      914209.57      1099.6144      913357.36      915828.17      913443.19     -1150.0246     -674.38688      1060.9627      9530.9993      19797.83       29328.83       115924.98      38.70042       38.70042       77.400841          16000 
    157000   4629.7387      901162.88      1107.1431      906019.79      899896.82      897572.03      850.43112     -2214.2754      650.52295      9574.4527      19753.126      29327.578      116264.31      38.738144      38.738144      77.476288          16000 
    158000   4572.9954      896237.62      1114.6757      894657.36      898371.91      895683.59     -853.18697      3074.102      -290.04073      9457.1056      19595.894      29053          116236.01      38.735001      38.735001      77.470002          16000 
    159000   4544.383       904687.13      1122.2045      903953.61      903564.06      906543.73      1238.3041     -344.02177      1350.1755      9397.9343      19824.043      29221.977      116178.91      38.728657      38.728657      77.457313          16000 
    160000   4554.7776      904630.88      1129.7381      905762.1       903058.27      905072.25     -457.66402      1720.8089     -2507.2374      9419.4306      19788.33       29207.761      116162         38.726777      38.726777      77.453554          16000 
    161000   4608.1967      899348.44      1137.2715      899795.01      896280.7       901969.62      450.85259     -1660.8461     -1234.0435      9529.9032      19725.889      29255.792      116310.68      38.743294      38.743294      77.486587          16000 
    162000   4532.3888      895349.07      1144.8009      896725.91      895825.32      893496        -2516.5222     -56.281956      1083.9812      9373.1299      19676.922      29050.052      116421.83      38.755631      38.755631      77.511262          16000 
    163000   4582.7582      897058.02      1152.3312      898427.96      896310.14      896435.96      1905.1449     -616.74839     -681.63491      9477.2954      19739.18       29216.475      116336.48      38.746157      38.746157      77.492315          16000 
    164000   4607.0491      902033         1159.8655      899302.14      903190.23      903606.64     -37.070534      2608.9658      1000.0954      9527.5299      19773.911      29301.441      116223.65      38.733628      38.733628      77.467256          16000 
    165000   4613.3457      891264.17      1167.3975      889324.38      894905.38      889562.74     -1016.1293      723.86341      112.92623      9540.5515      19626.941      29167.492      116451.65      38.758939      38.758939      77.517878          16000 
    166000   4591.2874      892889.17      1174.9288      890676.14      892592.37      895399         38.025293     -863.38477     -734.91817      9494.934       19596.27       29091.204      116429.59      38.756491      38.756491      77.512983          16000 
    167000   4641.6055      897805.78      1182.4591      896030.93      900508.63      896877.79      366.09613      2057.9644     -1452.4658      9598.9935      19665.057      29264.051      116333.83      38.745864      38.745864      77.491727          16000 
    168000   4621.816       904786.69      1189.9893      908299.76      902273.01      903787.29      134.36169      1786.6081      290.32628      9558.0683      19796.445      29354.513      116190.05      38.729894      38.729894      77.459789          16000 
    169000   4548.5718      906199.32      1197.5203      904073.04      908879.75      905645.16     -1393.469      -822.45988     -1210.6674      9406.5969      19783.81       29190.407      116088.09      38.718563      38.718563      77.437126          16000 
    170000   4574.5507      901549.72      1205.0541      899086.68      899548.41      906014.07      290.75427      3336.1852     -231.74809      9460.3221      19790.363      29250.685      116342.8       38.746859      38.746859      77.493717          16000 
    171000   4603.6806      903753.65      1212.585       903135.5       902956.69      905168.77      2477.3308     -2088.5474      1459.9482      9520.5636      19867.83       29388.394      116291.77      38.741193      38.741193      77.482386          16000 
    172000   4585.3767      902713.03      1220.116       898740.64      900862.96      908535.49     -1208.3316      3278.6593     -514.40892      9482.7105      19709.592      29192.303      116184.53      38.729281      38.729281      77.458562          16000 
    173000   4652.5094      899532.5       1227.6474      897117.08      903133.4       898347.02      265.92568      735.61849     -1590.324       9621.5433      19698.732      29320.275      116306.02      38.742775      38.742775      77.48555           16000 
    174000   4692.793       896020.71      1235.1781      892614.33      899233.36      896214.43     -154.41361     -482.75627     -1694.8297      9704.851       19528.856      29233.707      116378.48      38.75082       38.75082       77.50164           16000 
    175000   4624.915       899832.37      1242.7123      898659.54      903028.11      897809.45     -715.92878      670.26651      80.92874       9564.4771      19664.553      29229.03       116253.54      38.736947      38.736947      77.473895          16000 
    176000   4635.8812      892169.15      1250.2418      889957.56      892767.49      893782.4      -1006.7768     -86.826976      769.09414      9587.1555      19616.951      29204.107      116519.69      38.766486      38.766486      77.532972          16000 
    177000   4587.8012      903987.38      1257.7745      902962.37      901724.99      907274.79      45.195074      407.44534      43.09594       9487.7246      19771.09       29258.815      116198.05      38.730784      38.730784      77.461568          16000 
    178000   4628.9478      906443.52      1265.3048      908598.52      907121.32      903610.71      337.29086      453.84581      217.07671      9572.8171      19857.77       29430.587      116203.06      38.73134       38.73134       77.46268           16000 
    179000   4629.7568      907973.79      1272.837       910850.24      904292.06      908779.08      281.18878     -373.58281     -1311.9716      9574.4902      19714.354      29288.844      115987.62      38.707389      38.707389      77.414779          16000 
    180000   4589.8757      894675.96      1280.3693      894702.86      896695.44      892629.6       1533.7562      1150.8314     -696.54818      9492.0147      19711.342      29203.357      116429.94      38.756531      38.756531      77.513062          16000 
    181000   4596.4585      904598.43      1287.8997      904292.75      907903.64      901598.89      43.426445      87.095957      2062.4749      9505.6282      19737.165      29242.793      116106.18      38.720573      38.720573      77.441147          16000 
    182000   4607.224       900854.07      1295.4324      899874.06      900160.16      902527.97     -467.58187      1924.5061      1490.6832      9527.8915      19700.353      29228.244      116251.06      38.736672      38.736672      77.473344          16000 
    183000   4630.1018      904544.7       1302.9628      907438.43      904088.57      902107.11      304.35536      729.12755      2195.3741      9575.2035      19831.753      29406.957      116226.32      38.733924      38.733924      77.467849          16000 
    184000   4568.2079      898455.34      1310.4941      906728.82      890054.09      898583.11      788.60653      1315.5314      158.67042      9447.2049      19736.331      29183.536      116344.68      38.747068      38.747068      77.494135          16000 
    185000   4553.6461      896718.53      1318.0223      902957.96      893881.97      893315.65      1819.668      -468.12701      1604.5738      9417.0907      19710.807      29127.897      116422.89      38.755748      38.755748      77.511496          16000 
    186000   4591.8978      891587.57      1325.5537      890411.83      890463.64      893887.22      1474.725       579.4808      -1285.9085      9496.1964      19591.023      29087.22       116411.92      38.754531      38.754531      77.509062          16000 
    187000   4562.1333      910935.45      1333.0853      919848.44      906914.56      906043.36     -856.88476     -795.28185      289.78024      9434.6426      19894.47       29329.112      116142.74      38.724637      38.724637      77.449274          16000 
    188000   4627.375       901707.7       1340.6178      902162.3       905084.75      897876.04      956.08515      783.74114     -699.28148      9569.5645      19787.778      29357.342      116307.83      38.742976      38.742976      77.485952          16000 
    189000   4569.1003      896077.58      1348.1451      892380.31      901392.63      894459.81      1470.1464      193.84994      299.17793      9449.0504      19698.183      29147.233      116369.31      38.749802      38.749802      77.499605          16000 
    190000   4613.6082      900106.52      1355.6758      904196.51      899221.42      896901.62     -118.72599     -1049.1545      989.84585      9541.0943      19676.987      29218.081      116233.52      38.734724      38.734724      77.469448          16000 
    191000   4727.0647      907866.7       1363.2079      912439.07      906075.88      905085.16     -1127.4676     -290.5959      -261.53745      9775.7262      19812.033      29587.759      116187.96      38.729662      38.729662      77.459324          16000 
    192000   4589.6045      907975.26      1370.7412      909636.6       909121.69      905167.5      -1543.1104     -666.3722      -777.72424      9491.4538      19780.496      29271.95       116041.29      38.713358      38.713358      77.426717          16000 
    193000   4636.8149      899593.02      1378.2734      902992.92      895583.65      900202.51      1975.2968     -2037.6713     -2185.3629      9589.0865      19762.166      29351.252      116321.53      38.744498      38.744498      77.488996          16000 
    194000   4575.696       900179.51      1385.8038      900741.37      897549.57      902247.61      1818.1386     -900.68809      270.399        9462.6906      19748.142      29210.833      116288.09      38.740785      38.740785      77.48157           16000 
    195000   4576.5452      892994.41      1393.3387      890259.5       893468.77      895254.98     -1107.4193      1158.9881     -1256.355       9464.4468      19758.013      29222.459      116511.87      38.765619      38.765619      77.531239          16000 
    196000   4569.8302      886413.05      1400.8716      884728.71      885947.17      888563.27      1228.9259      266.86334     -1125.7403      9450.56        19543.308      28993.868      116560.61      38.771024      38.771024      77.542047          16000 
    197000   4581.7341      893825.17      1408.4055      892841.07      894077.8       894556.63     -1889.8834      2185.4244      701.44529      9475.1776      19680.18       29155.357      116429.89      38.756525      38.756525      77.513049          16000 
    198000   4551.1152      904595.2       1415.9362      901324.11      907768.4       904693.09     -2012.5613      968.64667      65.777489      9411.8566      19746.9        29158.757      116142.55      38.724616      38.724616      77.449232          16000 
    199000   4654.7363      904477.58      1423.4685      904924.59      899862.48      908645.66      853.60994     -457.73467     -1233.2788      9626.1485      19694.374      29320.522      116223.71      38.733635      38.733635      77.467269          16000 
    200000   4584.0227      904152.64      1431.0023      904448.79      904901.28      903107.87      490.53177      1192.9968     -816.31334      9479.9104      19795.168      29275.079      116245.36      38.736039      38.736039      77.472079          16000 
    201000   4615.9446      884739.83      1438.5321      885079.97      883663         885476.53     -705.63039      942.42834      1332.921       9545.926       19567.894      29113.82       116636.88      38.779478      38.779478      77.558956          16000 
    202000   4591.5171      893097.62      1446.0666      892504.43      894409.51      892378.92     -156.8041      -678.18871     -1215.3702      9495.4092      19568.969      29064.378      116384.35      38.751471      38.751471      77.502942          16000 
    203000   4665.9625      902512.51      1453.5981      902092.67      899818.47      905626.4      -326.72934      1530.1344      144.06485      9649.3647      19640.417      29289.782      116151.03      38.725559      38.725559      77.451118          16000 
    204000   4640.0211      894441.83      1461.1299      892315.77      891516.69      899493.02      2198.7805     -156.29953     -2141.9487      9595.717       19721.867      29317.584      116452.85      38.759073      38.759073      77.518145          16000 
    205000   4595.4665      896389.17      1468.6633      900023.03      895617.75      893526.73     -3403.1273      964.5517      -1658.635       9503.5766      19702.219      29205.795      116357.06      38.748443      38.748443      77.496885          16000 
    206000   4660.7354      906791.59      1476.1937      909999.26      900449.43      909926.09     -982.22159      1090.7035     -135.81674      9638.5549      19847.922      29486.477      116263.06      38.738005      38.738005      77.47601           16000 
    207000   4655.465       913896.25      1483.7278      915338.37      910901.45      915448.92      1177.2429      366.90751     -620.05576      9627.6556      19790.38       29418.036      115987.1       38.707332      38.707332      77.414664          16000 
    208000   4593.8474      896004.11      1491.2595      894230.31      898297.53      895484.51     -1881.3346     -38.348415      1585.8761      9500.2284      19740.433      29240.661      116388.26      38.751905      38.751905      77.50381           16000 
    209000   4572.5922      897050.53      1498.7881      897592.81      899815.83      893742.97     -489.50715      1409.1228     -407.18327      9456.2718      19650.997      29107.269      116313.96      38.743658      38.743658      77.487316          16000 
    210000   4574.919       899646.33      1506.3225      902467.97      896891.79      899579.23     -609.01191     -1296.793      -154.85367      9461.0838      19768.306      29229.39       116362.78      38.749078      38.749078      77.498155          16000 
    211000   4611.6026      898715.59      1513.8526      902441.27      894589.52      899115.97     -1185.8927      1928.2618     -235.69787      9536.9466      19769.476      29306.423      116411.68      38.754504      38.754504      77.509008          16000 
    212000   4592.6953      906398.24      1521.3872      904744.89      910489.43      903960.41     -1615.8106     -1024.6155      1831.8815      9497.8457      19778.748      29276.594      116096.3       38.719475      38.719475      77.438951          16000 
    213000   4628.3319      898425.84      1528.918       901441.02      896530.34      897306.16      795.52944      455.70406     -491.95259      9571.5433      19763.913      29335.456      116343.13      38.746896      38.746896      77.493792          16000 
    214000   4601.8201      894957.36      1536.4504      899010.44      895873.79      889987.85     -684.86765     -246.89294      785.33029      9516.7162      19670.121      29186.838      116461.67      38.760051      38.760051      77.520101          16000 
    215000   4515.861       902965.74      1543.9796      899262.47      909229.54      900405.21      323.47483      840.64554      680.44427      9338.9498      19787.269      29126.219      116210.67      38.732186      38.732186      77.464372          16000 
    216000   4614.8179      899836.2       1551.5087      898214.97      903023.68      898269.94     -1862.3664     -797.03434     -116.20688      9543.596       19727.998      29271.594      116363         38.749102      38.749102      77.498203          16000 
    217000   4600.0273      912989.53      1559.0409      919011.96      910636.62      909320        -2076.775      -425.8431      -233.25247      9513.0086      19862.292      29375.3        116005.14      38.709339      38.709339      77.418677          16000 
    218000   4635.0206      908108.14      1566.5767      909201.58      908590.48      906532.37     -535.78476      1101.4062      72.687638      9585.3757      19783.817      29369.193      116142.01      38.724556      38.724556      77.449113          16000 
    219000   4613.6981      896474.32      1574.107       896648.75      896140.12      896634.1      -416.0745       438.88108      1689.2099      9541.2803      19693.912      29235.192      116306.66      38.742847      38.742847      77.485695          16000 
    220000   4564.4452      891925.97      1581.6416      892013.55      892303.42      891460.96     -517.08233      392.34892      239.42429      9439.4235      19571.041      29010.465      116375.38      38.750475      38.750475      77.50095           16000 
    221000   4607.5911      892998.64      1589.1755      887927.74      895087.03      895981.16     -1156.6047      532.25123     -100.89856      9528.6507      19690.178      29218.829      116490.81      38.763283      38.763283      77.526566          16000 
    222000   4524.3469      903094.7       1596.705       896076.93      909297         903910.17      262.98603      1174.5494      283.01502      9356.4989      19764.47       29120.969      116131.15      38.723349      38.723349      77.446698          16000 
    223000   4640.0732      897493.89      1604.2388      897549.49      896442.1       898490.08     -2051.6446      641.79678      239.51202      9595.8247      19684.774      29280.599      116341.39      38.746702      38.746702      77.493405          16000 
    224000   4581.2813      899914.19      1611.77        899763.47      903803.45      896175.66     -522.95551      1235.3217      2017.2054      9474.2411      19794.04       29268.281      116424.19      38.755893      38.755893      77.511785          16000 
    225000   4581.205       909446.68      1619.3021      908948.81      909753.67      909637.57      246.97701      230.26685     -140.22636      9474.0834      19825.167      29299.25       116130.9       38.723321      38.723321      77.446643          16000 
    226000   4595.307       906843.55      1626.8345      907668.76      908271.69      904590.19     -174.54782      1647.6475      906.7595       9503.2467      19895.237      29398.484      116234.48      38.734831      38.734831      77.469662          16000 
    227000   4609.6093      899764.56      1634.3694      898102.61      901573.73      899617.33     -502.8156      -704.02183     -1054.5563      9532.8244      19728.696      29261.521      116288.43      38.740823      38.740823      77.481645          16000 
    228000   4575.3734      890502.44      1641.9023      894640.65      889881.65      886985.03     -431.55228     -530.4673      -168.8127       9462.0235      19532.055      28994.078      116380.91      38.75109       38.75109       77.50218           16000 
    229000   4616.0083      889965.27      1649.435       887669.38      890304.18      891922.24      2018.4126     -2210.2525     -557.52763      9546.0579      19627.15       29173.207      116561.78      38.771154      38.771154      77.542308          16000 
    230000   4548.3056      906144.48      1656.9669      904202.81      909569.21      904661.42     -1088.1851     -164.9768       652.20298      9406.0463      19898.361      29304.407      116246.22      38.736134      38.736134      77.472268          16000 
    231000   4586.6921      905723.31      1664.4977      903083.86      906779.53      907306.55      255.28982      990.83589     -68.21024       9485.431       19702.777      29188.208      116062.28      38.715692      38.715692      77.431384          16000 
    232000   4607.7853      903991.48      1672.0305      902254.91      906384.55      903334.98     -1513.021      -2371.022       1648.3891      9529.0523      19802.15       29331.202      116235.76      38.734972      38.734972      77.469945          16000 
    233000   4560.0013      903266.88      1679.5623      899879.22      901541.76      908379.66     -361.87649      963.08026      252.85647      9430.2334      19765.818      29196.052      116156.07      38.726119      38.726119      77.452237          16000 
    234000   4637.1652      898420.74      1687.097       897123.12      900889.45      897249.65     -624.13507     -1488.471      -2127.7374      9589.811       19712.601      29302.412      116375.98      38.750542      38.750542      77.501084          16000 
    235000   4551.8133      902622.47      1694.6291      901186.45      900587.15      906093.82     -747.14712     -1163.8819     -3786.9844      9413.3004      19723.877      29137.177      116181         38.728889      38.728889      77.457778          16000 
    236000   4616.3018      897312.39      1702.1655      893423.93      899915.5       898597.73      661.63798     -1701.5773     -1044.2873      9546.6647      19694.311      29240.975      116411.81      38.754519      38.754519      77.509037          16000 
    237000   4586.9633      899411.59      1709.6967      898149.42      899372.06      900713.28     -49.946033     -943.83181      27.227301      9485.9916      19751.459      29237.451      116254.6       38.737066      38.737066      77.474131          16000 
    238000   4564.1689      899171.28      1717.2313      896942.58      899923.16      900648.12      220.44026     -64.760872      1339.8885      9438.8522      19749.12       29187.972      116344.41      38.747039      38.747039      77.494077          16000 
    239000   4600.5605      889085.83      1724.7635      885592.7       886012.19      895652.61     -1192.2019     -942.2923      -16.638261      9514.1113      19610.902      29125.014      116482.76      38.76239       38.76239       77.52478           16000 
    240000   4606.4945      901933.26      1732.2945      903302.76      902299.5       900197.51     -808.46481      285.2156      -798.00875      9526.383       19730.368      29256.751      116247.13      38.736235      38.736235      77.472471          16000 
    241000   4617.4517      902580.81      1739.8238      901963.5       904757.21      901021.72     -1152.3019      1522.9781     -1191.9269      9549.0427      19831.53       29380.573      116368.93      38.74976       38.74976       77.49952           16000 
    242000   4596.4574      905416.16      1747.357       904909.1       905143.4       906195.97      331.82691     -2525.5562      231.60264      9505.6258      19785.529      29291.155      116104.09      38.720342      38.720342      77.440683          16000 
    243000   4598.369       908364.43      1754.8903      901505.56      913789.26      909798.47     -815.39344     -690.11023      1093.7434      9509.5792      19825.48       29335.059      116113.18      38.721351      38.721351      77.442702          16000 
    244000   4602.1087      903070.8       1762.4244      900613.59      901776.05      906822.75     -186.4819       140.24358     -833.96078      9517.3129      19786.832      29304.145      116238.04      38.735226      38.735226      77.470452          16000 
    245000   4592.2222      902646.61      1769.9571      900024.91      909288.81      898626.12      977.86118      43.508309      2334.3878      9496.8673      19790.175      29287.042      116273.39      38.739153      38.739153      77.478306          16000 
    246000   4620.5596      899399.48      1777.4875      894249.5       902490.28      901458.66     -127.31113      566.18248     -608.87851      9555.47        19658.628      29214.098      116214.53      38.732614      38.732614      77.465228          16000 
    247000   4609.1115      894713.98      1785.0195      891442.53      895943.68      896755.74      967.91277     -2296.6602     -335.91106      9531.795       19624.031      29155.826      116393.42      38.752478      38.752478      77.504956          16000 
    248000   4561.8097      898337.48      1792.5533      896049.96      900086.63      898875.84      179.73572     -353.02855     -994.21195      9433.9732      19739.858      29173.831      116365.97      38.749431      38.749431      77.498862          16000 
    249000   4552.4095      899150.3       1800.0849      904751.46      891225.2       901474.24     -771.4769      -2535.6842      1204.3369      9414.5334      19847.732      29262.266      116421.8       38.755628      38.755628      77.511256          16000 
    250000   4592.4388      892568.46      1807.6186      895195.45      891268.56      891241.36      246.49375     -1046.0013      425.57944      9497.3153      19679.118      29176.433      116466.68      38.760607      38.760607      77.521214          16000 
    251000   4595.3746      900306.25      1815.151       897360.87      900079.05      903478.84      342.68514      988.15154      521.12118      9503.3867      19715.192      29218.579      116311.23      38.743354      38.743354      77.486708          16000 
    252000   4619.665       901257.49      1822.6815      904299.61      897116.52      902356.32      1170.557      -3138.7921      608.88365      9553.6199      19803.113      29356.732      116277.46      38.739604      38.739604      77.479209          16000 
    253000   4632.1436      907020.02      1830.2131      906411.58      911462.07      903186.43      2984.6682     -184.71859     -261.49814      9579.4262      19813.768      29393.194      116117.2       38.721798      38.721798      77.443596          16000 
    254000   4616.5195      903169.35      1837.7471      900172.12      908992.12      900343.81     -910.52919      583.43631     -1198.1827      9547.115       19793.838      29340.953      116268.64      38.738625      38.738625      77.477251          16000 
    255000   4520.8555      903436.91      1845.2827      904036.33      904463.96      901810.44      457.36701      23.88099      -1009.0926      9349.2786      19835.631      29184.91       116224.63      38.733736      38.733736      77.467472          16000 
    256000   4606.0251      895086.83      1852.814       898021.02      898063.65      889175.82     -549.94828     -370.40282     -946.29783      9525.4122      19643.927      29169.339      116382.56      38.751273      38.751273      77.502545          16000 
    257000   4614.5755      895311.35      1860.3461      888689.04      897509.55      899735.46      1198.7276     -616.80858      241.22986      9543.0947      19664.375      29207.47       116386.41      38.7517        38.7517        77.5034            16000 
    258000   4585.314       896653.97      1867.8781      892417.55      895965.5       901578.86     -412.74407      477.53499      875.47223      9482.5808      19685.805      29168.385      116328.32      38.745252      38.745252      77.490503          16000 
    259000   4540.1722      904360.81      1875.4099      907775.62      903559.48      901747.34      577.15618     -558.05301     -2070.2405      9389.2261      19789.318      29178.544      116159.88      38.726543      38.726543      77.453085          16000 
    260000   4613.5637      898074.84      1882.943       900384.18      897015.69      896824.66      151.71722     -756.80477      2647.1434      9541.0023      19765.836      29306.839      116366.5       38.74949       38.74949       77.49898           16000 
    261000   4606.6119      905170.4       1890.4769      905631.09      902885.95      906994.16      241.42386     -1101.4784      570.46606      9526.6258      19882.294      29408.92       116201.52      38.731169      38.731169      77.462337          16000 
    262000   4581.3614      904598.54      1898.0129      908894.98      901784.56      903116.07      701.6404      -1968.9242     -1168.8064      9474.4067      19802.905      29277.311      116208.41      38.731934      38.731934      77.463869          16000 
    263000   4608.2412      893297.69      1905.5436      898383.73      890920.83      890588.52     -852.89664     -390.92036      198.51482      9529.9951      19706.027      29236.022      116471.9       38.761186      38.761186      77.522372          16000 
    264000   4576.8178      902404.09      1913.0741      902059.73      903069.61      902082.92      1754.0224     -349.54519      1709.8563      9465.0105      19727.747      29192.757      116206.9       38.731767      38.731767      77.463534          16000 
    265000   4626.0304      897387.85      1920.6099      893553.21      902717.74      895892.6       1062.5729     -1049.8186      478.46113      9566.7837      19658.172      29224.956      116223.4       38.7336        38.7336        77.4672            16000 
    266000   4666.8867      900470.45      1928.1447      900617.87      904986.29      895807.21     -393.23096     -1582.4344      608.62987      9651.2761      19723.458      29374.734      116341.37      38.746701      38.746701      77.493402          16000 
    267000   4594.6964      895237.4       1935.679       893160.93      897886.32      894664.96      1352.8429     -52.164126     -870.96936      9501.9841      19650.996      29152.98       116326.46      38.745045      38.745045      77.49009           16000 
    268000   4599.3387      894390.2       1943.2118      896107.6       898841.82      888221.19     -338.00915     -113.45055      253.88771      9511.5844      19624.627      29136.212      116395.72      38.752734      38.752734      77.505467          16000 
    269000   4625.7154      892759.84      1950.7413      894699.47      889196.07      894383.96      510.38793      511.19519      1287.4533      9566.1323      19672.319      29238.452      116559.63      38.770916      38.770916      77.541832          16000 
    270000   4609.9973      901139.28      1958.2704      902253.28      901448.13      899716.42     -231.99805      453.21006      1285.684       9533.6269      19729.752      29263.379      116240.47      38.735496      38.735496      77.470992          16000 
    271000   4611.4908      904601.26      1965.8019      906501.17      899467.72      907834.9      -1107.2801      796.41415     -567.16262      9536.7155      19700.515      29237.23       116120.8       38.722199      38.722199      77.444398          16000 
    272000   4627.0321      903719.12      1973.3342      905896.88      901824.92      903435.57      971.68221     -1646.6935     -1792.2145      9568.8554      19831.064      29399.919      116313.12      38.743564      38.743564      77.487128          16000 
    273000   4589.3416      913997.3       1980.8665      911940.36      916917.6       913133.94      288.35999     -867.7514      -1776.8987      9490.9102      19861.453      29352.363      116027.66      38.711843      38.711843      77.423687          16000 
    274000   4591.6757      899832.67      1988.3999      903586.09      895099.59      900812.33     -1989.5728     -214.99997     -1891.6404      9495.7372      19724.225      29219.962      116282.53      38.740168      38.740168      77.480335          16000 
    275000   4561.3354      894990.94      1995.9313      894571.02      892623.96      897777.84      2420.5254      1615.009      -382.10961      9432.9923      19633.532      29066.525      116310.27      38.743248      38.743248      77.486496          16000 
    276000   4588.4049      907457.07      2003.4648      910162.84      905981.73      906226.63      235.39278     -1615.6268      35.984426      9488.973       19826.396      29315.369      116140.04      38.724337      38.724337      77.448674          16000 
    277000   4617.8275      900335.09      2010.9956      903529.49      899838.48      897637.3      -567.50578      462.84013     -809.84053      9549.8198      19721.976      29271.796      116347.42      38.747373      38.747373      77.494745          16000 
    278000   4615.3718      899597.76      2018.5264      902888.13      898577.59      897327.56     -182.64758      1156.9135     -588.15303      9544.7415      19811.702      29356.443      116376.67      38.750619      38.750619      77.501238          16000 
    279000   4589.3939      903042.8       2026.0604      903746.48      905411.35      899970.55      1774.0319      936.10534     -823.2067       9491.0182      19742.21       29233.229      116232.23      38.734581      38.734581      77.469162          16000 
    280000   4587.467       894912.24      2033.5935      894486.98      898078.66      892171.08     -950.35796     -1413.3868      378.35309      9487.0334      19654.111      29141.145      116380.15      38.751005      38.751005      77.502011          16000 
    281000   4610.2876      898152.84      2041.1227      896789.85      893700.58      903968.1      -2092.3794      458.08736     -977.0158       9534.2271      19752.531      29286.759      116408.05      38.754101      38.754101      77.508202          16000 
    282000   4582.4277      910298.44      2048.6556      913776.66      906788.49      910330.17      1184.2327      261.97353      597.29937      9476.612       19847.674      29324.286      116049.25      38.714244      38.714244      77.428489          16000 
    283000   4621.6895      905397.12      2056.1876      907103.18      904955.09      904133.08     -1270.427      -309.14182      452.10441      9557.8067      19803.768      29361.575      116219.64      38.733182      38.733182      77.466363          16000 
    284000   4585.5929      900246.91      2063.7195      900223.65      897258.32      903258.77      175.53611     -1510.7042     -458.67503      9483.1578      19749.178      29232.335      116279.78      38.739862      38.739862      77.479723          16000 
    285000   4645.9967      893307.64      2071.2501      895170.07      891896.9       892855.97     -48.211555     -676.80048      1047.9799      9608.0748      19729.169      29337.244      116562         38.771178      38.771178      77.542355          16000 
[...]
   3930000   4495.7368      904831.73      7022.8026      902440.3       905776.9       906278         425.86562      3625.0658     -4585.2078      9297.3323      22865.064      32162.397      119421.14      38.788391      38.788391      79.373892          16000 
   3931000   4517.3965      899938.36      7030.3774      892384.43      896108.62      911322.04     -1542.2161      1416.7229     -341.49773      9342.1254      22743.991      32086.116      119556.87      38.803081      38.803081      79.403952          16000 
   3932000   4526.1021      900090.05      7037.9496      893538.23      899921.66      906810.27     -561.2616      -542.34194     -1277.9731      9360.1288      22662.536      32022.665      119668.86      38.815192      38.815192      79.428738          16000 
   3933000   4501.3645      904221.83      7045.5256      900971.5       900548.8       911145.19      536.0937      -4996.5318      2475.0624      9308.9706      22815.054      32124.024      119486.95      38.795514      38.795514      79.38847           16000 
   3934000   4504.7225      902701.27      7053.0995      898314.97      898380.61      911408.22     -530.24995      6245.0301     -4722.9317      9315.915       22808.57       32124.485      119485.78      38.795389      38.795389      79.388212          16000 
   3935000   4556.1293      901953.53      7060.6704      898070.66      899729.92      908060.01      2865.0719      4065.2114      134.11834      9422.2261      22689.64       32111.866      119507.61      38.797751      38.797751      79.393047          16000 
   3936000   4537.5724      898524.65      7068.2428      889808         899726.15      906039.81     -1587.3918     -10623.863      4236.6009      9383.8498      22640.886      32024.736      119661.94      38.814444      38.814444      79.427206          16000 
   3937000   4523.3302      898257.3       7075.8178      884904.96      900701.94      909165         1020.1117      5173.3138     -2532.1963      9354.3965      22705.448      32059.845      119599.52      38.807694      38.807694      79.413394          16000 
   3938000   4502.8046      896729.67      7083.3933      890009.22      891156.69      909023.09      889.14321      3448.5005     -438.17142      9311.9488      22697.613      32009.561      119688.29      38.817293      38.817293      79.433036          16000 
   3939000   4528.9131      894821.94      7090.971       889090.82      893622.97      901752.04      1639.656       85.58975       7715.4688      9365.9421      22661.217      32027.159      119657.09      38.81392       38.81392       79.426134          16000 
   3940000   4533.9403      892937.77      7098.5511      886068.52      891679.34      901065.44     -141.11181      3772.9063     -130.78576      9376.3384      22595.004      31971.342      119758.37      38.824867      38.824867      79.448536          16000 
   3941000   4505.5861      897086.16      7106.1212      892889.31      898162.12      900207.06      3456.6554      2731.3857     -5758.7854      9317.701       22753.301      32071.002      119579.74      38.805555      38.805555      79.409015          16000 
   3942000   4510.5817      903471.29      7113.6918      898434.26      897657.31      914322.3      -236.30898     -2104.8038      5585.1495      9328.0321      22772.432      32100.464      119525.95      38.799735      38.799735      79.397106          16000 
   3943000   4557.1223      906932.69      7121.2695      905362.83      899957.64      915477.59     -1934.8301      5522.6317     -2991.8184      9424.2795      22742.788      32167.067      119406.88      38.786847      38.786847      79.370734          16000 
   3944000   4543.2751      904539.33      7128.8404      899916.15      901024.79      912677.05      1068.8664     -793.00412     -3455.1849      9395.643       22780.138      32175.782      119389.25      38.784938      38.784938      79.366828          16000 
   3945000   4534.8831      905659.83      7136.4087      901239.98      903430.5       912309.03     -110.93789     -5471.2547     -56.041859      9378.2882      22755.227      32133.515      119462.05      38.792819      38.792819      79.382955          16000 
   3946000   4519.6937      902150.72      7143.9746      897350.01      896998.71      912103.42     -1699.9259      1856.2844      401.79832      9346.8759      22776.598      32123.474      119478.41      38.79459       38.79459       79.386578          16000 
   3947000   4550.6388      906765.27      7151.5394      904124.24      902029.63      914141.93      300.26278      2057.7936     -192.54101      9410.8714      22773.814      32184.686      119368.42      38.782682      38.782682      79.36221           16000 
   3948000   4573.7593      898789.89      7159.0856      895031.25      894612.64      906725.76      1882.661      -6821.8973      405.39529      9458.6855      22632.963      32091.648      119533.28      38.800528      38.800528      79.398729          16000 
   3949000   4541.6983      900531.92      7166.6292      898602.34      895669.78      907323.64      995.21421      4308.859       2036.8315      9392.3822      22686.979      32079.361      119555.07      38.802886      38.802886      79.403555          16000 
   3950000   4536.9907      898100.95      7174.165       894769.89      895989.54      903543.41      1039.2185     -1568.4225     -1855.4821      9382.6467      22702.227      32084.873      119541.97      38.801468      38.801468      79.400653          16000 
   3951000   4541.5952      901595.65      7181.7029      894438.61      896793.72      913554.62     -3087.247       1558.8649     -5697.482       9392.1689      22741.809      32133.978      119454.72      38.792026      38.792026      79.381332          16000 
   3952000   4532.0386      902340.34      7189.2358      902517.05      894991.44      909512.52     -2014.885       2276.6712     -1045.4726      9372.4057      22749.961      32122.367      119475         38.794222      38.794222      79.385824          16000 
   3953000   4508.9012      906745.57      7196.7661      903426.54      906479.42      910330.76      1060.18       -1826.1951     -3113.3496      9324.5567      22801.247      32125.804      119468.08      38.793472      38.793472      79.38429           16000 
   3954000   4546.8378      907613.54      7204.3041      902210.21      905073.26      915557.14      851.21198     -3945.7693      7760.2546      9403.0108      22786.44       32189.451      119352.25      38.780931      38.780931      79.358626          16000 
   3955000   4542.7843      908189.1       7211.8297      901097.61      901343.83      922125.86      557.98458      113.19974     -2708.9884      9394.6282      22772.957      32167.585      119390.3       38.785052      38.785052      79.36706           16000 
   3956000   4543.4594      911662.19      7219.3595      907697.76      908126.85      919161.97      299.44097      2145.3151      124.41594      9396.0243      22833.351      32229.376      119281.61      38.773279      38.773279      79.342968          16000 
   3957000   4524.9961      908098.34      7226.8879      905760.56      902602.74      915931.72      1810.9053     -1177.5911      2140.1713      9357.8416      22853.453      32211.295      119312.81      38.776659      38.776659      79.349885          16000 
   3958000   4552.2528      897810.5       7234.4195      890906.32      899806.07      902719.11     -4719.4142     -3257.7942     -2988.8576      9414.2093      22641.932      32056.141      119587.84      38.806431      38.806431      79.410808          16000 
   3959000   4502.8416      902194.98      7241.9497      900854.3       898673.25      907057.4      -364.63559     -2945.5042     -4728.0861      9312.0253      22729.682      32041.707      119613.41      38.809197      38.809197      79.416468          16000 
   3960000   4487.8935      894774.04      7249.4765      895527.3       893051.69      895743.14      1289.8305     -6034.8127      7972.2713      9281.1121      22676.747      31957.859      119761.18      38.825172      38.825172      79.449158          16000 
   3961000   4494.3401      891689.03      7257.0036      889098.07      885920.85      900048.18     -569.92087     -6713.7447     -1918.9515      9294.4439      22650.868      31945.312      119783.91      38.827628      38.827628      79.454184          16000 
   3962000   4499.728       898018.72      7264.5323      892319.83      891505.98      910230.36     -82.863391      3182.9354     -6117.1989      9305.5862      22724.806      32030.393      119629.97      38.810988      38.810988      79.420134          16000 
   3963000   4492.0232      898256.14      7272.0619      893481.2       893497.02      907790.21      708.05258      4327.7107      188.69213      9289.6526      22763.764      32053.417      119587.22      38.806364      38.806364      79.410671          16000 
   3964000   4472.4059      896836.1       7279.5959      896051.39      890142.78      904314.13      1240.8541     -5172.6802      2819.7525      9249.0833      22760.371      32009.454      119665.18      38.814794      38.814794      79.427923          16000 
   3965000   4524.3213      894704.09      7287.1241      890196.38      889533.23      904382.68      3334.0726     -3755.905      -8082.9347      9356.446       22661.734      32018.18       119649.05      38.81305       38.81305       79.424354          16000 
   3966000   4513.3281      894129.77      7294.6462      891411.18      890623.76      900354.38     -497.89086     -4335.87        2490.3419      9333.7117      22705.78       32039.492      119610.83      38.808918      38.808918      79.415898          16000 
   3967000   4495.6856      903093.04      7302.1765      896861.37      902226.4       910191.34     -1132.1833     -7048.5402      2596.9908      9297.2265      22784.377      32081.604      119535.42      38.80076       38.80076       79.399204          16000 
   3968000   4525.0969      910989.91      7309.7102      900387.21      906486.08      926096.45      3094.488      -1483.1538     -4609.3334      9358.0499      22852.984      32211.034      119303.96      38.7757        38.7757        79.347923          16000 
   3969000   4508.5721      908203.85      7317.2391      904265.88      912141.82      908203.87     -2644.8521      1602.4673      3048.7696      9323.8762      22851.929      32175.805      119365.42      38.782358      38.782358      79.361547          16000 
   3970000   4483.8363      907416.4       7324.7756      899873.65      899941.62      922433.94      549.50849      3744.9557      3786.3304      9272.7218      22876.668      32149.39       119412.37      38.787441      38.787441      79.371949          16000 
   3971000   4458.8562      902493.8       7332.3128      896652.98      898045.09      912783.33      2925.8087      4457.3082     -2861.5262      9221.0621      22843.91       32064.972      119561.7       38.803603      38.803603      79.405021          16000 
   3972000   4476.6923      898139.23      7339.8535      897987.73      889937.93      906492.04     -3096.5161     -4444.451      -1964.8515      9257.9477      22817.095      32075.042      119542.65      38.801542      38.801542      79.400804          16000 
   3973000   4504.2887      902877.59      7347.3962      897269.13      896635.76      914727.89      827.11547      638.99501     -763.57532      9315.018       22799.267      32114.285      119471.84      38.793879      38.793879      79.385123          16000 
   3974000   4489.3727      902344.47      7354.9391      892523.23      898784.11      915726.06     -530.2656       2750.8149     -5055.4545      9284.1711      22802.479      32086.65       119521.43      38.799247      38.799247      79.396107          16000 
   3975000   4494.486       911448.43      7362.4831      908727.4       904287.4       921330.49     -569.00918     -2205.8671      1963.4506      9294.7456      22901.055      32195.8        119328.62      38.778372      38.778372      79.35339           16000 
   3976000   4489.9608      901936.47      7370.0262      899440.8       899289.32      907079.29      459.51452     -1866.3213     -540.89914      9285.3874      22798.934      32084.321      119524.97      38.799629      38.799629      79.396889          16000 
   3977000   4489.0956      899132.88      7377.563       896290.26      893647.15      907461.24      2480.2222     -2038.1226     -4730.9496      9283.5982      22745.161      32028.759      119623.84      38.810325      38.810325      79.418777          16000 
   3978000   4506.7956      895901.77      7385.1028      889486.53      890864.1       907354.67      2938.4733      1437.657       2171.314       9320.2022      22664.95       31985.153      119699.48      38.818503      38.818503      79.435511          16000 
   3979000   4524.3393      896553.12      7392.6451      897485.66      886388.12      905785.6      -1478.5978      5862.7716     -390.09213      9356.4833      22676.575      32033.058      119613.43      38.809199      38.809199      79.416473          16000 
   3980000   4489.2913      901948.62      7400.1896      902447.41      893564.55      909833.92      141.38516     -752.37895     -352.40755      9284.0029      22796.594      32080.597      119527.73      38.799928      38.799928      79.397501          16000 
   3981000   4535.0177      902014.89      7407.7353      899306.89      897653.91      909083.88     -1173.766       4830.1956     -3131.6314      9378.5666      22722.649      32101.215      119489.78      38.795822      38.795822      79.389098          16000 
   3982000   4487.1098      901742.82      7415.2749      893978.06      897186.23      914064.16     -2956.7941      4514.757      -1360.612       9279.4913      22775.202      32054.694      119572.29      38.804749      38.804749      79.407367          16000 
   3983000   4478.4328      896742.25      7422.8131      892708.72      891058         906460.04     -485.57351      631.32731     -1456.1358      9261.5472      22752.35       32013.897      119644.54      38.812563      38.812563      79.423358          16000 
   3984000   4517.6304      896037.74      7430.3537      891329.49      891887.64      904896.07     -337.5481      -3143.8071      5.1009001      9342.6089      22664.73       32007.339      119653.73      38.813556      38.813556      79.425389          16000 
   3985000   4493.1956      899966.82      7437.8981      895773.52      892052.09      912074.87      801.45716     -585.44123      5004.6482      9292.0771      22779.511      32071.588      119538.05      38.801044      38.801044      79.399785          16000 
   3986000   4513.4592      901585.82      7445.4382      898755.02      894533.86      911468.58     -398.78207      2153.1508     -2832.1233      9333.9828      22713.846      32047.828      119578.32      38.805401      38.805401      79.408701          16000 
   3987000   4523.891       895526.27      7452.9771      886655.64      889318.64      910604.53     -1995.0237     -5800.6751     -5433.4766      9355.5561      22680.827      32036.383      119598.96      38.807634      38.807634      79.41327           16000 
   3988000   4480.2911      902163.47      7460.5196      897424.95      899091.07      909974.38      1286.0858     -988.27857      2044.3518      9265.3902      22801.74       32067.13       119544.68      38.801762      38.801762      79.401253          16000 
   3989000   4492.085       902729.3       7468.061       895479.52      897877.44      914830.95     -3835.546      -1732.3852      1364.3325      9289.7803      22777.985      32067.765      119541.85      38.801456      38.801456      79.400628          16000 
   3990000   4478.3001      901562.69      7475.6057      896311.73      896748.32      911628.03      467.53934     -4546.0545      133.20295      9261.2727      22784.782      32046.055      119580.27      38.805612      38.805612      79.409132          16000 
   3991000   4482.5876      897901.72      7483.1515      896458.5       889422.4       907824.26     -1426.2685      3248.9804      4499.1093      9270.1394      22762.378      32032.518      119601.97      38.80796       38.80796       79.413937          16000 
   3992000   4485.4555      900424.65      7490.6993      891729.7       899170.01      910374.25      806.2962       2821.4881      958.79878      9276.0702      22758.615      32034.686      119597.31      38.807455      38.807455      79.412904          16000 
   3993000   4537.184       901118.08      7498.2415      895773.21      896445.81      911135.22      3094.3504     -1552.408      -794.17796      9383.0464      22677.505      32060.551      119548.69      38.802196      38.802196      79.402143          16000 
   3994000   4534.3819      899314.8       7505.7839      895554.31      896164.87      906225.21      3286.9805      600.17642      2866.3707      9377.2517      22691.214      32068.466      119533.66      38.800569      38.800569      79.398813          16000 
   3995000   4532.5018      896225.39      7513.3316      887881.12      889588.38      911206.68      663.48542     -792.00418      196.69257      9373.3636      22637.611      32010.974      119635.78      38.811616      38.811616      79.421419          16000 
   3996000   4531.0662      894969.55      7520.8782      892449.74      893280.15      899178.75     -2398.6513     -6534.0959      64.318962      9370.3947      22610.169      31980.563      119690.62      38.817545      38.817545      79.433551          16000 
   3997000   4534.0503      894416.1       7528.4247      890823.21      887689.7       904735.39      510.2992      -809.35799     -3231.6804      9376.5658      22580.296      31956.861      119730.9       38.821899      38.821899      79.442461          16000 
   3998000   4506.5823      895704.52      7535.9661      892774.06      893735.39      900604.1      -430.59593      3329.6515     -213.06033      9319.7612      22677.161      31996.922      119658.43      38.814065      38.814065      79.42643           16000 
   3999000   4491.908       897206.53      7543.5132      890723.66      896542.48      904353.45      306.91371     -3478.0556      1796.6839      9289.4143      22755.201      32044.616      119572.83      38.804807      38.804807      79.407485          16000 
   4000000   4488.778       903313.25      7551.0486      896638.08      903705.39      909596.29     -357.5408       2325.4437      2460.0599      9282.9414      22812.588      32095.529      119479.87      38.794748      38.794748      79.386902          16000 
Loop time of 7551.05 on 8 procs for 1000000 steps with 16000 atoms

Performance: 5.721 ns/day, 4.195 hours/ns, 132.432 timesteps/s
60.9% CPU use with 1 MPI tasks x 8 OpenMP threads

MPI task timing breakdown:
Section |  min time  |  avg time  |  max time  |%varavg| %total
---------------------------------------------------------------
Pair    | 7273.2     | 7273.2     | 7273.2     |   0.0 | 96.32
Neigh   | 13.265     | 13.265     | 13.265     |   0.0 |  0.18
Comm    | 40.434     | 40.434     | 40.434     |   0.0 |  0.54
Output  | 1.217      | 1.217      | 1.217      |   0.0 |  0.02
Modify  | 199.18     | 199.18     | 199.18     |   0.0 |  2.64
Other   |            | 23.73      |            |       |  0.31

Nlocal:          16000 ave       16000 max       16000 min
Histogram: 1 0 0 0 0 0 0 0 0 0
Nghost:          15825 ave       15825 max       15825 min
Histogram: 1 0 0 0 0 0 0 0 0 0
Neighs:              0 ave           0 max           0 min
Histogram: 1 0 0 0 0 0 0 0 0 0
FullNghs:  1.91522e+06 ave 1.91522e+06 max 1.91522e+06 min
Histogram: 1 0 0 0 0 0 0 0 0 0

Total # of neighbors = 1915218
Ave neighs/atom = 119.70113
Neighbor list builds = 35713
Dangerous builds = 0
Total wall time: 8:26:59
